----- GAMESS execution script 'rungms' -----
This job is running on host chemcompute-node-0.novalocal
under operating system Linux at Sun Nov 14 21:20:18 UTC 2021
SLURM has assigned the following compute nodes to this run:
chemcompute-node-0
Available scratch disk space (Kbyte units) at beginning of the job is
Filesystem     1K-blocks     Used Available Use% Mounted on
/dev/sda1       62903276 16709032  46194244  27% /
GAMESS temporary binary files will be written to /scratch/306510
GAMESS supplementary output files will be written to /data/slurm/342521
Copying input file 342521.inp to your run's scratch directory...
The generated host list is
chemcompute-node-0.novalocal

 Distributed Data Interface kickoff program.
 Initiating 1 compute processes on 1 nodes to run the following command:
 /data/gamess-2019R1-ddi/gamess.00.x 342521 

          ******************************************************
          *         GAMESS VERSION = 30 JUN 2019 (R1)          *
          *             FROM IOWA STATE UNIVERSITY             *
          * M.W.SCHMIDT, K.K.BALDRIDGE, J.A.BOATZ, S.T.ELBERT, *
          *   M.S.GORDON, J.H.JENSEN, S.KOSEKI, N.MATSUNAGA,   *
          *          K.A.NGUYEN, S.J.SU, T.L.WINDUS,           *
          *       TOGETHER WITH M.DUPUIS, J.A.MONTGOMERY       *
          *         J.COMPUT.CHEM.  14, 1347-1363(1993)        *
          **************** 64 BIT LINUX VERSION ****************

  SINCE 1993, STUDENTS AND POSTDOCS WORKING AT IOWA STATE UNIVERSITY
  AND ALSO IN THEIR VARIOUS JOBS AFTER LEAVING ISU HAVE MADE IMPORTANT
  CONTRIBUTIONS TO THE CODE:
     IVANA ADAMOVIC, CHRISTINE AIKENS, YURI ALEXEEV, POOJA ARORA,
     ANDREY ASADCHEV, ROB BELL, PRADIPTA BANDYOPADHYAY, JONATHAN BENTZ,
     COLLEEN BERTONI, BRETT BODE, KURT BRORSEN, CALEB CARLIN, GALINA CHABAN,
     WEI CHEN, CHEOL HO CHOI, PAUL DAY, ALBERT DEFUSCO, NUWAN DESILVA,
     TIM DUDLEY, DMITRI FEDOROV, ALEX FINDLATER, GRAHAM FLETCHER, 
     MARK FREITAG, KURT GLAESEMANN, ANASTASIA GUNINA,
     DAN KEMP, GRANT MERRILL, NORIYUKI MINEZAWA, JONATHAN MULLIN,
     TAKESHI NAGATA, SEAN NEDD, HEATHER NETZLOFF, BOSILJKA NJEGIC, RYAN OLSON,
     MIKE PAK, BUU PHAM,
     SPENCER PRUITT, LUKE ROSKOP, JIM SHOEMAKER, LYUDMILA SLIPCHENKO,
     TONY SMITH, SAROM SOK LEANG, JIE SONG, TETSUYA TAKETSUGU, SIMON WEBB,
     PENG XU, SOOHAENG YOO, FEDERICO ZAHARIEV

  ADDITIONAL CODE HAS BEEN PROVIDED BY COLLABORATORS IN OTHER GROUPS:
     IOWA STATE UNIVERSITY:
          JOE IVANIC, AARON WEST, LAIMUTIS BYTAUTAS, KLAUS RUEDENBERG
     UNIVERSITY OF TOKYO: KIMIHIKO HIRAO, TAKAHITO NAKAJIMA,
          TAKAO TSUNEDA, MUNEAKI KAMIYA, SUSUMU YANAGISAWA,
          KIYOSHI YAGI, MAHITO CHIBA, SEIKEN TOKURA, NAOAKI KAWAKAMI
     UNIVERSITY OF AARHUS: FRANK JENSEN
     UNIVERSITY OF IOWA: VISVALDAS KAIRYS, HUI LI
     NATIONAL INST. OF STANDARDS AND TECHNOLOGY: WALT STEVENS, DAVID GARMER
     UNIVERSITY OF PISA: BENEDETTA MENNUCCI, JACOPO TOMASI
     UNIVERSITY OF MEMPHIS: HENRY KURTZ, PRAKASHAN KORAMBATH
     UNIVERSITY OF ALBERTA: TOBY ZENG, MARIUSZ KLOBUKOWSKI
     UNIVERSITY OF NEW ENGLAND: MARK SPACKMAN
     MIE UNIVERSITY: HIROAKI UMEDA
     NAT. INST. OF ADVANCED INDUSTRIAL SCIENCE AND TECHNOLOGY: KAZUO KITAURA
     MICHIGAN STATE UNIVERSITY:
          KAROL KOWALSKI, MARTA WLOCH, JEFFREY GOUR, JESSE LUTZ,
          WEI LI, JUN SHEN, J. EMILIANO DEUSTUA, PIOTR PIECUCH
     UNIVERSITY OF MINNESOTA:
          YINAN SHU
     UNIVERSITY OF SILESIA: MONIKA MUSIAL, STANISLAW KUCHARSKI
     FACULTES UNIVERSITAIRES NOTRE-DAME DE LA PAIX:
          OLIVIER QUINET, BENOIT CHAMPAGNE
     UNIVERSITY OF CALIFORNIA - SANTA BARBARA: BERNARD KIRTMAN
     INSTITUTE FOR MOLECULAR SCIENCE:
          KAZUYA ISHIMURA, MICHIO KATOUDA, AND SHIGERU NAGASE
     UNIVERSITY OF NOTRE DAME: ANNA POMOGAEVA, DAN CHIPMAN
     KYUSHU UNIVERSITY:
          HARUYUKI NAKANO,
          FENG LONG GU, JACEK KORCHOWIEC, MARCIN MAKOWSKI, AND YURIKO AOKI,
          HIROTOSHI MORI AND EISAKU MIYOSHI
     PENNSYLVANIA STATE UNIVERSITY:
          TZVETELIN IORDANOV, CHET SWALINA, JONATHAN SKONE,
          SHARON HAMMES-SCHIFFER
     WASEDA UNIVERSITY:
          MASATO KOBAYASHI, TOMOKO AKAMA, TSUGUKI TOUMA,
          TAKESHI YOSHIKAWA, YASUHIRO IKABATA, JUNJI SEINO,
          YUYA NAKAJIMA, HIROMI NAKAI
     NANJING UNIVERSITY: SHUHUA LI
     UNIVERSITY OF NEBRASKA:
          PEIFENG SU, DEJUN SI, NANDUN THELLAMUREGE, YALI WANG, HUI LI
     UNIVERSITY OF ZURICH: ROBERTO PEVERATI, KIM BALDRIDGE
     N. COPERNICUS UNIVERSITY AND JACKSON STATE UNIVERSITY:
          MARIA BARYSZ
     UNIVERSITY OF COPENHAGEN: Jimmy Kromann, CASPER STEINMANN
     TOKYO INSTITUTE OF TECHNOLOGY: HIROYA NAKATA
     NAGOYA UNIVERSITY: YOSHIO NISHIMOTO, STEPHAN IRLE
     MOSCOW STATE UNIVERSITY: VLADIMIR MIRONOV
     A.N.NESMEYANOV INSTITUTE OF ORGANOELEMENT COMPOUNDS OF RUSSIAN ACADEMY OF SCIENCES:
          IGOR S. GERASIMOV

 EXECUTION OF GAMESS BEGUN Sun Nov 14 21:20:19 2021

            ECHO OF THE FIRST FEW INPUT CARDS -
 INPUT CARD>!File created by the GAMESS Input Deck Generator Plugin for Avogadro            
 INPUT CARD> $BASIS GBASIS=STO NGAUSS=3 $END                                                
 INPUT CARD> $CONTRL SCFTYP=RHF RUNTYP=IRC NZVAR=1 mult=1  ICHARG=0 $END                    
 INPUT CARD> $STATPT hssend=.t. OPTTOL=0.0005 NSTEP=50 $END                                 
 INPUT CARD> $STATPT HESS=calc ihrep=5 $END                                                 
 INPUT CARD> $FORCE nvib=2 $END                                                             
 INPUT CARD> $ZMAT DLC=.t. auto=.t. nonvdw(1)=4,3,6,1,6,5,1,2,2,3,5,4 $END                  
 INPUT CARD>!$ZMAT IFZMAT(1)=1,4,3,1,6,1 fvalue(1)=2.00,2.00 $END                           
 INPUT CARD> $irc npoint=50 saddle=.t. tsengy=.t. forwrd=.f. opttol=0.0005 stride=0.2 $end  
 INPUT CARD>                                                                                
 INPUT CARD> $DATA                                                                          
 INPUT CARD>Title                                                                           
 INPUT CARD>C1                                                                              
 INPUT CARD>C     6.0    -3.11788440    -0.90811169    -0.34642512                          
 INPUT CARD>C     6.0    -3.53908944    -0.12436230     0.74244380                          
 INPUT CARD>C     6.0    -2.86663675     1.07967579     1.01073813                          
 INPUT CARD>C     6.0    -1.01480126     0.64041984     1.32571065                          
 INPUT CARD>C     6.0    -0.90264159    -0.75151432     1.16624069                          
 INPUT CARD>C     6.0    -1.23555541    -1.25438857    -0.10611139                          
 INPUT CARD>C     6.0    -0.66116208    -0.46327224    -1.26080453                          
 INPUT CARD>C     6.0    -0.25650004     0.78152508    -1.11819613                          
 INPUT CARD>C     6.0    -0.36676657     1.48735011     0.21468593                          
 INPUT CARD>O     8.0     0.02041180     2.63237405     0.40002045                          
 INPUT CARD>H     1.0    -3.01919508    -0.40775290    -1.30266666                          
 INPUT CARD>H     1.0    -3.56492400    -1.89214790    -0.44663838                          
 INPUT CARD>H     1.0    -3.96525955    -0.64829630     1.59027648                          
 INPUT CARD>H     1.0    -3.14556813     1.61762118     1.91082716                          
 INPUT CARD>H     1.0    -2.71038270     1.74726558     0.17102118                          
 INPUT CARD>H     1.0    -0.83036274     1.04447865     2.31743360                          
 INPUT CARD>H     1.0    -1.01887238    -1.39237916     2.03165841                          
 INPUT CARD>H     1.0    -1.18391109    -2.33038092    -0.24585226                          
 INPUT CARD>H     1.0    -0.59571046    -0.97028846    -2.21739721                          
 INPUT CARD>H     1.0     0.18315820     1.34267747    -1.93224025                          
 INPUT CARD> $END                                                                           
 INPUT CARD>                                                                                
 INPUT CARD> $HESS                                                                          
 INPUT CARD>ENERGY IS     -416.0940640581 E(NUC) IS      511.5054475245                     
 INPUT CARD> 1  1 1.61794979E-01 2.40951289E-01-5.43836299E-02-1.02423665E-01-1.02151814E-01
 INPUT CARD> 1  2 5.42464161E-03 1.48179993E-01 4.18628427E-02 1.09378565E-02-1.00928230E-01
 INPUT CARD> 1  3 9.89404704E-02-7.71419659E-03-5.27917839E-02-1.19379084E-01-1.14142639E-01
 INPUT CARD> 1  4 1.60285824E-01 1.51611927E-02 1.02794914E-01-4.54192486E-02-1.32122390E-02
 INPUT CARD> 1  5 1.21971944E-02-1.81536380E-03 1.17250909E-02 6.44653258E-04 9.17779240E-03
 INPUT CARD> 1  6-3.48714268E-03 2.56293795E-03-7.41651155E-04 3.39208154E-03-1.69023561E-03
 INPUT CARD> 1  7-2.82649286E-02-3.11622330E-02 4.30306832E-02-1.17375530E-01-1.51614379E-01
 INPUT CARD> 1  8-6.07569097E-03 1.26744338E-03 9.98224019E-03 8.96622254E-03-3.31737701E-03
 INPUT CARD> 1  9-4.13008972E-03-1.19364903E-03-1.90990848E-02 4.86157106E-03-4.59505338E-04
 INPUT CARD> 1 10 6.32269390E-03-6.14192512E-04-5.16746117E-04-7.16947259E-05 2.51417785E-04
 INPUT CARD> 1 11 1.19940214E-03-1.99703104E-02-2.83640856E-04-2.13511658E-03 1.80723083E-03
 INPUT CARD> 1 12-3.33391620E-05-1.50305273E-04 3.38291086E-03-1.06004182E-03 7.03208530E-04
 INPUT CARD> 2  1 2.40951289E-01 8.38650204E-01 3.20451971E-02 3.41119854E-02-1.85499093E-01
    1000000 WORDS OF MEMORY AVAILABLE

     BASIS OPTIONS
     -------------
     GBASIS=STO          IGAUSS=       3      POLAR=NONE    
     NDFUNC=       0     NFFUNC=       0     DIFFSP=       F
     NPFUNC=       0      DIFFS=       F     BASNAM=        


     RUN TITLE
     ---------
 Title                                                                           

 THE POINT GROUP OF THE MOLECULE IS C1      
 THE ORDER OF THE PRINCIPAL AXIS IS     0

 ATOM      ATOMIC                      COORDINATES (BOHR)
           CHARGE         X                   Y                   Z
 C           6.0    -5.8919471774       -1.7160822603       -0.6546485521
 C           6.0    -6.6879092876       -0.2350106702        1.4030153433
 C           6.0    -5.4171579638        2.0402913987        1.9100181110
 C           6.0    -1.9176963134        1.2102180147        2.5052298675
 C           6.0    -1.7057452702       -1.4201561406        2.2038753398
 C           6.0    -2.3348611675       -2.3704506794       -0.2005214513
 C           6.0    -1.2494151647       -0.8754575913       -2.3825750858
 C           6.0    -0.4847147914        1.4768682537       -2.1130842862
 C           6.0    -0.6930883188        2.8106841557        0.4056975811
 O           8.0     0.0385727089        4.9744656517        0.7559290400
 H           1.0    -5.7054514047       -0.7705412517       -2.4616830407
 H           1.0    -6.7367295271       -3.5756410592       -0.8440241538
 H           1.0    -7.4932540197       -1.2251023659        3.0051867919
 H           1.0    -5.9442618414        3.0568607821        3.6109397423
 H           1.0    -5.1218806249        3.3018531740        0.3231831683
 H           1.0    -1.5691580490        1.9737784485        4.3793144987
 H           1.0    -1.9253896147       -2.6312150834        3.8392776956
 H           1.0    -2.2372675539       -4.4037813858       -0.4645934049
 H           1.0    -1.1257295374       -1.8335793184       -4.1902731328
 H           1.0     0.3461188104        2.5372925082       -3.6514046149

          INTERNUCLEAR DISTANCES (ANGS.)
          ------------------------------

                1 C          2 C          3 C          4 C          5 C     

   1 C       0.0000000    1.4061694 *  2.4199828 *  3.1011202    2.6870023 *
   2 C       1.4061694 *  0.0000000    1.4049492 *  2.7013187 *  2.7429511 *
   3 C       2.4199828 *  1.4049492 *  0.0000000    1.9291055 *  2.6897426 *
   4 C       3.1011202    2.7013187 *  1.9291055 *  0.0000000    1.4055217 *
   5 C       2.6870023 *  2.7429511 *  2.6897426 *  1.4055217 *  0.0000000  
   6 C       1.9289429 *  2.7024571 *  3.0586984    2.3851930 *  1.4080461 *
   7 C       2.6588449 *  3.5228298    3.5220325    2.8343002 *  2.4560017 *
   8 C       3.4114547    3.8804647    3.3814300    2.5627352 *  2.8260149 *
   9 C       3.6907631    3.5971902    2.6550421 *  1.5400051 *  2.4910103 *
  10 O       4.7896893    4.5151853    3.3345011    2.4282607 *  3.5902398  
  11 H       1.0837418 *  2.1291024 *  2.7545526 *  3.4676545    3.2700878  
  12 H       1.0854558 *  2.1306454 *  3.3827928    4.0072742    3.3151428  
  13 H       2.1298737 *  1.0839502 *  2.1280800 *  3.2304781    3.0935561  
  14 H       3.3875184    2.1341240 *  1.0850568 *  2.4160818 *  3.3463310  
  15 H       2.7358430 *  2.1251517 *  1.0840738 *  2.3309680 *  3.2407238  
  16 H       4.0176495    3.3442462    2.4197322 *  1.0866441 *  2.1344929 *
  17 H       3.2086832    3.1018438    3.2507795    2.1518947 *  1.0831275 *
  18 H       2.4027521 *  3.3749240    4.0048810    3.3651249    2.1368057 *
  19 H       3.1409814    4.2590762    4.4475069    3.9145411    3.4045667  
  20 H       4.2985746    4.8126155    4.2463562    3.5415416    3.8942502  

                6 C          7 C          8 C          9 C         10 O     

   1 C       1.9289429 *  2.6588449 *  3.4114547    3.6907631    4.7896893  
   2 C       2.7024571 *  3.5228298    3.8804647    3.5971902    4.5151853  
   3 C       3.0586984    3.5220325    3.3814300    2.6550421 *  3.3345011  
   4 C       2.3851930 *  2.8343002 *  2.5627352 *  1.5400051 *  2.4282607 *
   5 C       1.4080461 *  2.4560017 *  2.8260149 *  2.4910103 *  3.5902398  
   6 C       0.0000000    1.5129802 *  2.4754412 *  2.8939309 *  4.1158895  
   7 C       1.5129802 *  0.0000000    1.3166658 *  2.4634667 *  3.5785344  
   8 C       2.4754412 *  1.3166658 *  0.0000000    1.5122573 *  2.4098348 *
   9 C       2.8939309 *  2.4634667 *  1.5122573 *  0.0000000    1.2228392 *
  10 O       4.1158895    3.5785344    2.4098348 *  1.2228392 *  0.0000000  
  11 H       2.3086591 *  2.3590580 *  3.0134524    3.5957129    4.6239296  
  12 H       2.4389862 *  3.3371223    4.3064122    4.6996348    5.8346176  
  13 H       3.2705297    4.3680610    4.8098971    4.4048140    5.2976489  
  14 H       3.9955763    4.5344943    4.2685774    3.2581596    3.6518063  
  15 H       3.3558673    3.3370507    2.9353494 *  2.3583891 *  2.8797736 *
  16 H       3.3648985    3.8866090    3.4931382    2.1983185 *  2.6309128 *
  17 H       2.1531495 *  3.4396960    3.9023909    3.4669110    4.4655338  
  18 H       1.0862570 *  2.1884902 *  3.3622959    3.9312709    5.1474734  
  19 H       2.2243296 *  1.0846285 *  2.0957475 *  3.4651740    4.4955154  
  20 H       3.4773908    2.1036057 *  1.0820625 *  2.2209546 *  2.6700643 *

               11 H         12 H         13 H         14 H         15 H     

   1 C       1.0837418 *  1.0854558 *  2.1298737 *  3.3875184    2.7358430 *
   2 C       2.1291024 *  2.1306454 *  1.0839502 *  2.1341240 *  2.1251517 *
   3 C       2.7545526 *  3.3827928    2.1280800 *  1.0850568 *  1.0840738 *
   4 C       3.4676545    4.0072742    3.2304781    2.4160818 *  2.3309680 *
   5 C       3.2700878    3.3151428    3.0935561    3.3463310    3.2407238  
   6 C       2.3086591 *  2.4389862 *  3.2705297    3.9955763    3.3558673  
   7 C       2.3590580 *  3.3371223    4.3680610    4.5344943    3.3370507  
   8 C       3.0134524    4.3064122    4.8098971    4.2685774    2.9353494 *
   9 C       3.5957129    4.6996348    4.4048140    3.2581596    2.3583891 *
  10 O       4.6239296    5.8346176    5.2976489    3.6518063    2.8797736 *
  11 H       0.0000000    1.7983417 *  3.0531982    3.8006122    2.6289210 *
  12 H       1.7983417 *  0.0000000    2.4200119 *  4.2487624    3.7890731  
  13 H       3.0531982    2.4200119 *  0.0000000    2.4308494 *  3.0541313  
  14 H       3.8006122    4.2487624    2.4308494 *  0.0000000    1.7980876 *
  15 H       2.6289210 *  3.7890731    3.0541313    1.7980876 *  0.0000000  
  16 H       4.4727049    4.8725450    3.6361824    2.4195035 *  2.9386172 *
  17 H       4.0110477    3.5880500    3.0707775    3.6874838    4.0225051  
  18 H       2.8603536 *  2.4293180 *  3.7331859    4.9077576    4.3739113  
  19 H       2.6507463 *  3.5779381    5.0946952    5.4992078    4.1906421  
  20 H       3.7034357    5.1690645    5.7949522    5.0916775    3.5999971  

               16 H         17 H         18 H         19 H         20 H     

   1 C       4.0176495    3.2086832    2.4027521 *  3.1409814    4.2985746  
   2 C       3.3442462    3.1018438    3.3749240    4.2590762    4.8126155  
   3 C       2.4197322 *  3.2507795    4.0048810    4.4475069    4.2463562  
   4 C       1.0866441 *  2.1518947 *  3.3651249    3.9145411    3.5415416  
   5 C       2.1344929 *  1.0831275 *  2.1368057 *  3.4045667    3.8942502  
   6 C       3.3648985    2.1531495 *  1.0862570 *  2.2243296 *  3.4773908  
   7 C       3.8866090    3.4396960    2.1884902 *  1.0846285 *  2.1036057 *
   8 C       3.4931382    3.9023909    3.3622959    2.0957475 *  1.0820625 *
   9 C       2.1983185 *  3.4669110    3.9312709    3.4651740    2.2209546 *
  10 O       2.6309128 *  4.4655338    5.1474734    4.4955154    2.6700643 *
  11 H       4.4727049    4.0110477    2.8603536 *  2.6507463 *  3.7034357  
  12 H       4.8725450    3.5880500    2.4293180 *  3.5779381    5.1690645  
  13 H       3.6361824    3.0707775    3.7331859    5.0946952    5.7949522  
  14 H       2.4195035 *  3.6874838    4.9077576    5.4992078    5.0916775  
  15 H       2.9386172 *  4.0225051    4.3739113    4.1906421    3.5999971  
  16 H       0.0000000    2.4607884 *  4.2526589    4.9678002    4.3790267  
  17 H       2.4607884 *  0.0000000    2.4686312 *  4.2908857    4.9636584  
  18 H       4.2526589    2.4686312 *  0.0000000    2.4663376 *  4.2666311  
  19 H       4.9678002    4.2908857    2.4663376 *  0.0000000    2.4571858 *
  20 H       4.3790267    4.9636584    4.2666311    2.4571858 *  0.0000000  

  * ... LESS THAN  3.000


     ATOMIC BASIS SET
     ----------------
 THE CONTRACTED PRIMITIVE FUNCTIONS HAVE BEEN UNNORMALIZED
 THE CONTRACTED BASIS FUNCTIONS ARE NOW NORMALIZED TO UNITY

  SHELL TYPE  PRIMITIVE        EXPONENT          CONTRACTION COEFFICIENT(S)

 C         

      1   S       1            71.6168373    0.154328967295
      1   S       2            13.0450963    0.535328142282
      1   S       3             3.5305122    0.444634542185

      2   L       4             2.9412494   -0.099967229187    0.155916274999
      2   L       5             0.6834831    0.399512826089    0.607683718598
      2   L       6             0.2222899    0.700115468880    0.391957393099

 C         

      3   S       7            71.6168373    0.154328967295
      3   S       8            13.0450963    0.535328142282
      3   S       9             3.5305122    0.444634542185

      4   L      10             2.9412494   -0.099967229187    0.155916274999
      4   L      11             0.6834831    0.399512826089    0.607683718598
      4   L      12             0.2222899    0.700115468880    0.391957393099

 C         

      5   S      13            71.6168373    0.154328967295
      5   S      14            13.0450963    0.535328142282
      5   S      15             3.5305122    0.444634542185

      6   L      16             2.9412494   -0.099967229187    0.155916274999
      6   L      17             0.6834831    0.399512826089    0.607683718598
      6   L      18             0.2222899    0.700115468880    0.391957393099

 C         

      7   S      19            71.6168373    0.154328967295
      7   S      20            13.0450963    0.535328142282
      7   S      21             3.5305122    0.444634542185

      8   L      22             2.9412494   -0.099967229187    0.155916274999
      8   L      23             0.6834831    0.399512826089    0.607683718598
      8   L      24             0.2222899    0.700115468880    0.391957393099

 C         

      9   S      25            71.6168373    0.154328967295
      9   S      26            13.0450963    0.535328142282
      9   S      27             3.5305122    0.444634542185

     10   L      28             2.9412494   -0.099967229187    0.155916274999
     10   L      29             0.6834831    0.399512826089    0.607683718598
     10   L      30             0.2222899    0.700115468880    0.391957393099

 C         

     11   S      31            71.6168373    0.154328967295
     11   S      32            13.0450963    0.535328142282
     11   S      33             3.5305122    0.444634542185

     12   L      34             2.9412494   -0.099967229187    0.155916274999
     12   L      35             0.6834831    0.399512826089    0.607683718598
     12   L      36             0.2222899    0.700115468880    0.391957393099

 C         

     13   S      37            71.6168373    0.154328967295
     13   S      38            13.0450963    0.535328142282
     13   S      39             3.5305122    0.444634542185

     14   L      40             2.9412494   -0.099967229187    0.155916274999
     14   L      41             0.6834831    0.399512826089    0.607683718598
     14   L      42             0.2222899    0.700115468880    0.391957393099

 C         

     15   S      43            71.6168373    0.154328967295
     15   S      44            13.0450963    0.535328142282
     15   S      45             3.5305122    0.444634542185

     16   L      46             2.9412494   -0.099967229187    0.155916274999
     16   L      47             0.6834831    0.399512826089    0.607683718598
     16   L      48             0.2222899    0.700115468880    0.391957393099

 C         

     17   S      49            71.6168373    0.154328967295
     17   S      50            13.0450963    0.535328142282
     17   S      51             3.5305122    0.444634542185

     18   L      52             2.9412494   -0.099967229187    0.155916274999
     18   L      53             0.6834831    0.399512826089    0.607683718598
     18   L      54             0.2222899    0.700115468880    0.391957393099

 O         

     19   S      55           130.7093214    0.154328967295
     19   S      56            23.8088661    0.535328142282
     19   S      57             6.4436083    0.444634542185

     20   L      58             5.0331513   -0.099967229187    0.155916274999
     20   L      59             1.1695961    0.399512826089    0.607683718598
     20   L      60             0.3803890    0.700115468880    0.391957393099

 H         

     21   S      61             3.4252509    0.154328967295
     21   S      62             0.6239137    0.535328142282
     21   S      63             0.1688554    0.444634542185

 H         

     22   S      64             3.4252509    0.154328967295
     22   S      65             0.6239137    0.535328142282
     22   S      66             0.1688554    0.444634542185

 H         

     23   S      67             3.4252509    0.154328967295
     23   S      68             0.6239137    0.535328142282
     23   S      69             0.1688554    0.444634542185

 H         

     24   S      70             3.4252509    0.154328967295
     24   S      71             0.6239137    0.535328142282
     24   S      72             0.1688554    0.444634542185

 H         

     25   S      73             3.4252509    0.154328967295
     25   S      74             0.6239137    0.535328142282
     25   S      75             0.1688554    0.444634542185

 H         

     26   S      76             3.4252509    0.154328967295
     26   S      77             0.6239137    0.535328142282
     26   S      78             0.1688554    0.444634542185

 H         

     27   S      79             3.4252509    0.154328967295
     27   S      80             0.6239137    0.535328142282
     27   S      81             0.1688554    0.444634542185

 H         

     28   S      82             3.4252509    0.154328967295
     28   S      83             0.6239137    0.535328142282
     28   S      84             0.1688554    0.444634542185

 H         

     29   S      85             3.4252509    0.154328967295
     29   S      86             0.6239137    0.535328142282
     29   S      87             0.1688554    0.444634542185

 H         

     30   S      88             3.4252509    0.154328967295
     30   S      89             0.6239137    0.535328142282
     30   S      90             0.1688554    0.444634542185

 TOTAL NUMBER OF BASIS SET SHELLS             =   30
 NUMBER OF CARTESIAN GAUSSIAN BASIS FUNCTIONS =   60
 NUMBER OF ELECTRONS                          =   72
 CHARGE OF MOLECULE                           =    0
 SPIN MULTIPLICITY                            =    1
 NUMBER OF OCCUPIED ORBITALS (ALPHA)          =   36
 NUMBER OF OCCUPIED ORBITALS (BETA )          =   36
 TOTAL NUMBER OF ATOMS                        =   20
 THE NUCLEAR REPULSION ENERGY IS      511.5054475245

     $CONTRL OPTIONS
     ---------------
 SCFTYP=RHF          RUNTYP=IRC          EXETYP=RUN     
 MPLEVL=       0     CITYP =NONE         CCTYP =NONE         VBTYP =NONE    
 DFTTYP=NONE         TDDFT =NONE    
 MULT  =       1     ICHARG=       0     NZVAR =       1     COORD =UNIQUE  
 PP    =NONE         RELWFN=NONE         LOCAL =NONE         NUMGRD=       F
 ISPHER=      -1     NOSYM =       0     MAXIT =      30     UNITS =ANGS    
 PLTORB=       F     MOLPLT=       F     AIMPAC=       F     FRIEND=        
 NPRINT=       7     IREST =       0     GEOM  =INPUT   
 NORMF =       0     NORMP =       0     ITOL  =      20     ICUT  =       9
 INTTYP=BEST         GRDTYP=BEST         QMTTOL= 1.0E-06

     $SYSTEM OPTIONS
     ---------------
  REPLICATED MEMORY=     1000000 WORDS (ON EVERY NODE).
 DISTRIBUTED MEMDDI=           0 MILLION WORDS IN AGGREGATE,
 MEMDDI DISTRIBUTED OVER   1 PROCESSORS IS           0 WORDS/PROCESSOR.
 TOTAL MEMORY REQUESTED ON EACH PROCESSOR=     1000000 WORDS.
 TIMLIM=      525600.00 MINUTES, OR     365.0 DAYS.
 PARALL= F  BALTYP=  DLB     KDIAG=    0  COREFL= F
 MXSEQ2=     300 MXSEQ3=     150  mem10=         0

          ----------------
          PROPERTIES INPUT
          ----------------

     MOMENTS            FIELD           POTENTIAL          DENSITY
 IEMOM =       1   IEFLD =       0   IEPOT =       0   IEDEN =       0
 WHERE =COMASS     WHERE =NUCLEI     WHERE =NUCLEI     WHERE =NUCLEI  
 OUTPUT=BOTH       OUTPUT=BOTH       OUTPUT=BOTH       OUTPUT=BOTH    
 IEMINT=       0   IEFINT=       0                     IEDINT=       0
                                                       MORB  =       0
          EXTRAPOLATION IN EFFECT
          SOSCF IN EFFECT
 ORBITAL PRINTING OPTION: NPREO=     1    60     2     1

     -------------------------------
     INTEGRAL TRANSFORMATION OPTIONS
     -------------------------------
     NWORD  =            0
     CUTOFF = 1.0E-09     MPTRAN =       0
     DIRTRF =       F     AOINTS =DUP     

          ----------------------
          INTEGRAL INPUT OPTIONS
          ----------------------
 NOPK  =       1 NORDER=       0 SCHWRZ=       T


 -----------------------------------------------
  STATISTICS ON AUTOMATIC COORDINATE GENERATION 
 -----------------------------------------------
  NUMBER OF USER SPECIFIED BONDS                             6
  NUMBER OF BONDS                                           25
  NUMBER OF ANGLES                                          61
  NUMBER OF TORSIONS                                        62
  NUMBER OF EXTRA COORD.                                     0
  NUMBER OF EXTRA COORD. FOR CONSTRAINTS                     0
  NUMBER OF CONSTRAINED COORD.                               0

  TOTAL NUMBER OF PRIMITIVES                               148
 -----------------------------------------------

   --- ENCODED Z MATRIX ---
 COORD  TYPE   I   J   K   L   M   N
    1      1    1   6
    2      1    1   2
    3      1    1  12
    4      1    1  11
    5      1    1   2
    6      1    2   3
    7      1    2   3
    8      1    2  13
    9      1    3  15
   10      1    3  14
   11      1    3   4
   12      1    4   9
   13      1    4   5
   14      1    4  16
   15      1    4   5
   16      1    5   6
   17      1    5   6
   18      1    5  17
   19      1    6   7
   20      1    6  18
   21      1    7   8
   22      1    7  19
   23      1    8  20
   24      1    8   9
   25      1    9  10
   26      2    1   6   7
   27      2    1   6   5
   28      2    1   2   3
   29      2    1   2  13
   30      2    1   2   3
   31      2    1   6   5
   32      2    1   2  13
   33      2    1   2   3
   34      2    1   6  18
   35      2    1   2   3
   36      2    2   1  12
   37      2    2   3  15
   38      2    2   3  15
   39      2    2   1  11
   40      2    2   3  14
   41      2    2   1   6
   42      2    2   3   4
   43      2    2   3   4
   44      2    2   1  12
   45      2    2   1   6
   46      2    2   1  11
   47      2    2   3  14
   48      2    3   4   9
   49      2    3   2  13
   50      2    3   2  13
   51      2    3   4   5
   52      2    3   4  16
   53      2    3   4   5
   54      2    4   3  14
   55      2    4   3  15
   56      2    4   5   6
   57      2    4   5   6
   58      2    4   5  17
   59      2    4   5   6
   60      2    4   5   6
   61      2    4   9  10
   62      2    4   9   8
   63      2    4   5  17
   64      2    5   6   7
   65      2    5   6  18
   66      2    5   6   7
   67      2    5   4  16
   68      2    5   4  16
   69      2    5   4   9
   70      2    5   4   9
   71      2    5   6  18
   72      2    6   1  11
   73      2    6   7  19
   74      2    6   7   8
   75      2    6   5  17
   76      2    6   5  17
   77      2    6   1  12
   78      2    7   8   9
   79      2    7   8  20
   80      2    7   6  18
   81      2    8   9  10
   82      2    8   7  19
   83      2    9   8  20
   84      2    9   4  16
   85      2   11   1  12
   86      2   14   3  15
   87      3    1   6   5  17
   88      3    1   6   7  19
   89      3    1   6   5   4
   90      3    1   6   7   8
   91      3    1   2   3   4
   92      3    1   2   3  14
   93      3    1   2   3  15
   94      3    2   1   6   7
   95      3    2   1   6   5
   96      3    2   1   6  18
   97      3    2   3   4  16
   98      3    2   3   4   5
   99      3    2   3   4   9
  100      3    3   4   5  17
  101      3    3   4   5   6
  102      3    3   2   1  12
  103      3    3   2   1   6
  104      3    3   4   9  10
  105      3    3   4   9   8
  106      3    3   2   1  11
  107      3    4   9   8  20
  108      3    4   9   8   7
  109      3    4   3   2  13
  110      3    4   5   6  18
  111      3    4   5   6   7
  112      3    5   4   3  14
  113      3    5   4   3  15
  114      3    5   6   7  19
  115      3    5   6   7   8
  116      3    5   4   9   8
  117      3    5   4   9  10
  118      3    5   6   1  11
  119      3    5   6   1  12
  120      3    6   7   8   9
  121      3    6   7   8  20
  122      3    6   1   2  13
  123      3    6   5   4  16
  124      3    6   5   4   9
  125      3    7   8   9  10
  126      3    7   6   1  11
  127      3    7   6   5  17
  128      3    7   6   1  12
  129      3    8   7   6  18
  130      3    8   9   4  16
  131      3    9   8   7  19
  132      3    9   4   3  14
  133      3    9   4   3  15
  134      3    9   4   5  17
  135      3   10   9   8  20
  136      3   10   9   4  16
  137      3   11   1   6  18
  138      3   11   1   2  13
  139      3   12   1   6  18
  140      3   12   1   2  13
  141      3   13   2   3  15
  142      3   13   2   3  14
  143      3   14   3   4  16
  144      3   15   3   4  16
  145      3   16   4   5  17
  146      3   17   5   6  18
  147      3   18   6   7  19
  148      3   19   7   8  20

          INDEP./SYM. INTERNAL COORDINATES
          --------------------------------
 CRD  1=   0.1260 (  1)  0.1300 ( 11)  0.1195 ( 12)  0.1353 ( 19)  0.4105 ( 26)
          -0.1342 ( 27) -0.1342 ( 31) -0.1165 ( 34)  0.4021 ( 48) -0.1200 ( 51)
          -0.1210 ( 52) -0.1200 ( 53)  0.1159 ( 55)  0.1078 ( 72) -0.1991 ( 87)
          -0.2044 ( 89)  0.2021 (100)  0.2079 (101)  0.1656 (111) -0.1032 (121)
          -0.1577 (124)  0.1710 (127) -0.1635 (134)
 CRD  2=  -0.3534 ( 12)  0.3390 ( 19)  0.2116 ( 21) -0.1281 ( 24) -0.2698 ( 61)
           0.1233 ( 62)  0.1874 ( 73) -0.1378 ( 74)  0.1994 ( 79)  0.1465 ( 81)
          -0.1897 ( 83) -0.1016 ( 84)  0.1865 ( 94)  0.1517 ( 95)  0.1555 ( 98)
           0.2079 ( 99)  0.1014 (119)  0.1260 (126)  0.1362 (128)  0.1475 (132)
           0.1373 (133)
 CRD  3=  -0.1094 (  1) -0.1115 (  3)  0.1046 ( 10) -0.1261 ( 12)  0.1202 ( 22)
           0.2379 ( 24) -0.1095 ( 25) -0.1875 ( 27) -0.1875 ( 31)  0.1422 ( 34)
           0.1698 ( 41) -0.2220 ( 42) -0.2220 ( 43)  0.1698 ( 45)  0.1805 ( 51)
          -0.1577 ( 52)  0.1805 ( 53)  0.1388 ( 54)  0.1066 ( 55) -0.2452 ( 61)
           0.1018 ( 62)  0.1328 ( 64)  0.1328 ( 66) -0.1064 ( 69) -0.1064 ( 70)
          -0.1864 ( 77) -0.1074 ( 79) -0.1136 ( 80)  0.1434 ( 81)  0.1483 ( 83)
           0.1007 ( 84) -0.1434 ( 88) -0.1421 ( 90) -0.1532 (104) -0.1632 (105)
           0.1019 (122)
 CRD  4=   0.4578 (  1) -0.3986 ( 11)  0.1285 ( 34) -0.1092 ( 41)  0.1303 ( 42)
           0.1303 ( 43) -0.1092 ( 45) -0.1224 ( 52) -0.1804 ( 54) -0.1084 ( 55)
           0.2016 ( 77) -0.1613 ( 88) -0.1880 ( 90) -0.1659 (104) -0.2023 (105)
           0.1050 (108) -0.1228 (114) -0.1495 (115) -0.1610 (116) -0.1246 (117)
 CRD  5=   0.1676 (  1)  0.2114 ( 11)  0.2125 ( 12)  0.3014 ( 19) -0.1524 ( 21)
          -0.2059 ( 24)  0.1573 ( 41)  0.1573 ( 45)  0.1595 ( 54) -0.1038 ( 55)
           0.2607 ( 61) -0.1649 ( 72)  0.2712 ( 73) -0.3597 ( 81) -0.2387 ( 82)
           0.1228 ( 91)  0.1642 (109) -0.1231 (122)
 CRD  6=  -0.3252 (  1) -0.4076 ( 11) -0.2056 ( 21) -0.1882 ( 23) -0.3162 ( 24)
          -0.1408 ( 54)  0.2652 ( 61)  0.1010 ( 72)  0.1485 ( 73) -0.1365 ( 77)
           0.1523 ( 78) -0.2448 ( 81) -0.1734 ( 83) -0.1303 ( 91)  0.1196 (103)
          -0.1480 (109)  0.1446 (122)
 CRD  7=   0.3230 (  1)  0.2967 ( 11) -0.3658 ( 12) -0.3780 ( 19) -0.2273 ( 21)
          -0.2822 ( 23) -0.2520 ( 24) -0.1070 ( 25)  0.1206 ( 55)  0.1215 ( 72)
           0.1629 ( 78) -0.1178 ( 83)  0.1079 ( 87)  0.1044 (127)
 CRD  8=   0.4202 ( 21)  0.1035 ( 22) -0.1241 ( 24)  0.1729 ( 61) -0.3349 ( 73)
           0.4079 ( 79) -0.1956 ( 81)  0.4009 ( 82) -0.3923 ( 83)
 CRD  9=   0.1747 (  2)  0.1699 (  3)  0.1747 (  5)  0.1774 (  6)  0.1774 (  7)
           0.1546 ( 10)  0.1027 ( 14)  0.1092 ( 20)  0.1703 ( 22) -0.1923 ( 23)
           0.1524 ( 24)  0.2170 ( 25)  0.1565 ( 28)  0.1565 ( 30)  0.1565 ( 33)
           0.1565 ( 35)  0.1191 ( 56)  0.1191 ( 57)  0.1191 ( 59)  0.1191 ( 60)
           0.1489 ( 61) -0.1937 ( 62)  0.2157 ( 73) -0.1694 ( 74)  0.2809 ( 78)
          -0.1996 ( 79)  0.1111 (126)
 CRD 10=   0.1187 (  4) -0.1127 (  9) -0.2646 ( 12) -0.1466 ( 13) -0.1466 ( 15)
           0.1476 ( 16)  0.1476 ( 17)  0.2049 ( 19)  0.2481 ( 22) -0.2552 ( 25)
           0.1153 ( 39)  0.1153 ( 46) -0.1812 ( 58) -0.1321 ( 61)  0.1595 ( 62)
          -0.1812 ( 63)  0.1736 ( 73) -0.1875 ( 74)  0.1694 ( 75)  0.1694 ( 76)
           0.1057 ( 79) -0.1333 ( 83) -0.1733 ( 94) -0.1438 ( 95) -0.1316 ( 96)
          -0.1358 ( 97) -0.1458 ( 98) -0.1841 ( 99)
 CRD 11=  -0.1722 (  1) -0.1398 (  4) -0.1313 (  9) -0.1828 ( 11) -0.1359 ( 12)
          -0.1025 ( 14) -0.2982 ( 18) -0.1706 ( 19) -0.1882 ( 23)  0.1076 ( 26)
           0.1211 ( 41)  0.1214 ( 42)  0.1214 ( 43)  0.1211 ( 45)  0.1030 ( 48)
          -0.3080 ( 55) -0.3046 ( 72)  0.1395 ( 78)  0.1786 ( 91) -0.1849 (103)
           0.1915 (109) -0.1958 (122)
 CRD 12=   0.1965 (  2)  0.2336 (  3)  0.1965 (  5)  0.2051 (  6)  0.2051 (  7)
           0.1880 ( 10) -0.1551 ( 13) -0.1551 ( 15) -0.1432 ( 16) -0.1432 ( 17)
          -0.1424 ( 18) -0.1713 ( 20) -0.1126 ( 21) -0.2710 ( 22)  0.1405 ( 23)
          -0.1148 ( 24) -0.2803 ( 25)  0.1377 ( 62)  0.1322 ( 74) -0.1936 ( 78)
           0.1059 ( 83) -0.1056 (133)
 CRD 13=   0.1063 (  1) -0.1605 ( 10)  0.3214 ( 14) -0.3003 ( 20)  0.1973 ( 22)
           0.1215 ( 24) -0.1028 ( 25)  0.1496 ( 64)  0.1496 ( 66) -0.1377 ( 69)
          -0.1377 ( 70) -0.1282 ( 74) -0.1367 ( 80) -0.1432 ( 81)  0.1694 ( 82)
           0.1288 ( 84)  0.1120 ( 90) -0.1356 ( 93)  0.1123 ( 95)  0.1048 ( 97)
           0.1277 ( 98)  0.1132 (104)  0.1519 (105) -0.1435 (106)  0.1021 (130)
          -0.1222 (138) -0.1114 (141)
 CRD 14=   0.2031 (  2)  0.1516 (  3)  0.2031 (  5)  0.1925 (  6)  0.1925 (  7)
           0.3169 (  8)  0.1292 ( 10)  0.1889 ( 13)  0.1990 ( 14)  0.1889 ( 15)
           0.2056 ( 16)  0.2056 ( 17)  0.2077 ( 18)  0.1117 ( 20)  0.1498 ( 36)
           0.1252 ( 40)  0.1498 ( 44)  0.1252 ( 47) -0.1052 ( 54)  0.1170 ( 65)
           0.1216 ( 67)  0.1216 ( 68)  0.1170 ( 71) -0.1250 ( 77) -0.1116 ( 80)
           0.1131 ( 96)  0.1377 (112) -0.1214 (119) -0.1315 (128)  0.1072 (132)
 CRD 15=  -0.2036 (  2) -0.2841 (  4) -0.2036 (  5)  0.2202 (  6)  0.2202 (  7)
           0.2929 (  9) -0.2718 ( 29) -0.2718 ( 32) -0.1234 ( 36)  0.1325 ( 40)
          -0.1234 ( 44)  0.1325 ( 47)  0.2827 ( 49)  0.2827 ( 50) -0.1522 ( 54)
           0.1044 ( 55) -0.1007 ( 72)  0.1425 ( 77)  0.1355 ( 92)  0.1344 (102)
 CRD 16=  -0.1761 (  1) -0.1169 (  4) -0.2867 (  8)  0.1128 ( 13)  0.3861 ( 14)
           0.1128 ( 15) -0.2018 ( 25) -0.1486 ( 34) -0.1039 (101)  0.1699 (107)
           0.2024 (108)  0.1454 (110)  0.1331 (111) -0.1186 (115) -0.1935 (116)
          -0.1593 (117)  0.1680 (125)  0.1297 (127) -0.1347 (129) -0.1305 (130)
           0.1356 (135)  0.1421 (146) -0.1146 (147)
 CRD 17=  -0.1141 (  2) -0.1674 (  4) -0.1141 (  5) -0.1538 (  8)  0.1508 ( 16)
           0.1508 ( 17)  0.4552 ( 20) -0.1644 ( 22)  0.1199 ( 37)  0.1199 ( 38)
          -0.1352 ( 39) -0.1352 ( 46)  0.1320 ( 54) -0.1647 ( 55) -0.1679 ( 58)
          -0.1679 ( 63)  0.1191 ( 65)  0.1191 ( 71)  0.1266 ( 72)  0.1497 ( 75)
           0.1497 ( 76) -0.1030 ( 92) -0.1587 ( 93) -0.1025 (106)  0.1090 (114)
           0.1094 (115) -0.1126 (118) -0.1308 (138) -0.1582 (141) -0.1025 (142)
 CRD 18=   0.1400 (  6)  0.1400 (  7)  0.1556 (  8)  0.1915 (  9)  0.1305 ( 11)
          -0.1073 ( 13) -0.2274 ( 14) -0.1073 ( 15)  0.1329 ( 18) -0.2858 ( 20)
           0.1664 ( 22)  0.1059 ( 25)  0.1243 ( 37)  0.1243 ( 38) -0.1302 ( 55)
          -0.1031 ( 67) -0.1031 ( 68)  0.1616 ( 72) -0.1745 ( 77) -0.1047 ( 93)
          -0.1647 (102) -0.1060 (105) -0.1689 (106) -0.1098 (114) -0.1291 (115)
          -0.1067 (116) -0.1082 (129) -0.1670 (130) -0.1290 (136) -0.1703 (138)
          -0.1661 (140) -0.1426 (141)
 CRD 19=   0.2074 (  3) -0.1051 (  4) -0.3391 (  8) -0.1102 (  9)  0.1259 ( 10)
          -0.3764 ( 14)  0.4438 ( 18) -0.2837 ( 20) -0.1052 ( 56) -0.1052 ( 57)
          -0.1052 ( 59) -0.1052 ( 60)  0.1030 ( 90) -0.1319 (120) -0.1155 (121)
          -0.1009 (124) -0.1119 (131) -0.1209 (134)
 CRD 20=   0.1548 (  3) -0.1265 (  4)  0.1302 (  8)  0.3169 (  9) -0.2757 ( 10)
          -0.1482 ( 13) -0.1482 ( 15)  0.1251 ( 16)  0.1251 ( 17)  0.1780 ( 55)
          -0.1797 ( 58) -0.1797 ( 63) -0.1318 ( 67) -0.1318 ( 68) -0.1693 ( 72)
           0.1706 ( 75)  0.1706 ( 76)  0.1087 ( 84)  0.1224 ( 92)  0.1858 ( 93)
           0.1668 ( 97)  0.1618 (106) -0.1117 (130)  0.1862 (138)  0.1936 (141)
           0.1303 (142)
 CRD 21=  -0.2117 (  3)  0.3655 (  4)  0.2786 (  8)  0.1907 (  9) -0.1135 ( 52)
           0.1155 ( 87)  0.1107 ( 88)  0.1460 ( 89)  0.1340 ( 90) -0.1008 ( 96)
          -0.1278 (101)  0.1011 (107)  0.1199 (108)  0.1669 (110)  0.1092 (111)
          -0.1978 (120) -0.1780 (121) -0.2055 (123) -0.1658 (124)  0.1236 (125)
          -0.1735 (131) -0.1063 (134)  0.1049 (135) -0.1461 (145)  0.1365 (146)
          -0.1537 (148)
 CRD 22=  -0.1789 (  4) -0.3446 (  8) -0.1855 (  9) -0.1963 ( 18)  0.1326 ( 36)
           0.1365 ( 40)  0.1326 ( 44)  0.1365 ( 47) -0.2602 ( 54) -0.2614 ( 77)
           0.3028 ( 92)  0.1793 ( 93) -0.3041 (102) -0.1925 (106) -0.1050 (138)
          -0.2166 (140)  0.2142 (142)
 CRD 23=   0.4756 (  3)  0.2520 (  4) -0.3070 (  9) -0.5519 ( 10)  0.1175 ( 37)
           0.1175 ( 38) -0.1005 ( 39) -0.1005 ( 46)  0.1527 ( 85) -0.1794 ( 86)
          -0.1375 (113) -0.1154 (118) -0.1103 (126) -0.1324 (133) -0.1228 (137)
          -0.1452 (144)
 CRD 24=   0.4898 (  3)  0.3423 (  4) -0.1231 (  8)  0.2786 (  9)  0.4155 ( 10)
          -0.2341 ( 18) -0.1084 ( 37) -0.1084 ( 38) -0.1255 ( 39) -0.1255 ( 46)
           0.1732 ( 85)  0.1434 ( 86)  0.1342 (113) -0.1522 (118) -0.1528 (126)
           0.1349 (133) -0.1632 (137)  0.1431 (144)
 CRD 25=   0.1255 (  3) -0.3181 (  4)  0.3824 (  9) -0.1338 ( 10)  0.1138 ( 13)
           0.1138 ( 15) -0.1014 ( 16) -0.1014 ( 17)  0.1567 ( 22) -0.1729 ( 25)
           0.1342 ( 36) -0.1502 ( 40)  0.1342 ( 44) -0.1502 ( 47) -0.1963 (112)
          -0.1187 (113) -0.1092 (118) -0.1682 (119) -0.1550 (128) -0.1832 (132)
          -0.1055 (133) -0.1420 (137) -0.2010 (139) -0.2304 (143) -0.1527 (144)
 CRD 26=   0.3146 (  4) -0.1581 (  8)  0.2727 (  9)  0.3491 ( 18) -0.1485 ( 22)
          -0.1054 ( 25)  0.1267 ( 85)  0.1144 ( 86)  0.2165 ( 92) -0.2226 (102)
          -0.1061 (103) -0.1342 (112)  0.1631 (119)  0.1634 (128) -0.1342 (132)
           0.1043 (137)  0.1887 (139) -0.1669 (140)  0.1580 (142) -0.1510 (143)
 CRD 27=   0.1429 ( 20)  0.1779 ( 34)  0.1674 ( 52)  0.1060 ( 90)  0.2725 (107)
           0.1436 (108) -0.2327 (110) -0.1334 (111)  0.1036 (114)  0.1583 (115)
          -0.1177 (116) -0.1667 (120) -0.3024 (121)  0.2181 (123)  0.1231 (124)
           0.2704 (129) -0.2191 (130) -0.1096 (131)  0.2136 (135) -0.1606 (136)
           0.1871 (145) -0.1955 (146)  0.2157 (147) -0.2453 (148)
 CRD 28=  -0.1964 ( 12) -0.3331 ( 14)  0.1376 ( 20)  0.1234 ( 21)  0.4030 ( 22)
           0.3338 ( 23) -0.2546 ( 25)  0.2737 ( 61) -0.3048 ( 79) -0.2671 ( 81)
           0.2939 ( 83)
 CRD 29=   0.1751 ( 12)  0.2064 ( 19)  0.2546 ( 20)  0.1277 ( 22) -0.5764 ( 23)
          -0.1195 ( 24) -0.3336 ( 25) -0.1100 ( 34) -0.2734 ( 73) -0.1533 ( 79)
           0.2485 ( 82)  0.1817 ( 83)
 CRD 30=   0.1678 (  1)  0.1675 ( 11) -0.1176 ( 14) -0.1395 ( 18) -0.1685 ( 20)
           0.1168 ( 23) -0.1139 ( 52) -0.1828 ( 87)  0.2271 ( 88)  0.1876 (100)
          -0.2270 (104) -0.2012 (107)  0.2683 (114) -0.2557 (117)  0.1976 (121)
           0.2589 (125) -0.2039 (127)  0.1184 (130) -0.2650 (131)  0.1885 (134)
          -0.1018 (136) -0.1053 (138)  0.1060 (141)  0.1213 (147)
 CRD 31=   0.2464 ( 12)  0.2538 ( 14) -0.2379 ( 19) -0.2251 ( 20)  0.3175 ( 21)
           0.2980 ( 22) -0.3633 ( 24) -0.3073 ( 25) -0.1118 ( 61) -0.1221 ( 62)
           0.1231 ( 73)  0.2339 ( 81) -0.2230 ( 82)
 CRD 32=  -0.1976 (  3)  0.2539 (  4) -0.4043 (  8)  0.2522 (  9) -0.1899 ( 10)
           0.1811 ( 12) -0.3685 ( 18)  0.1665 ( 19)  0.1879 ( 22) -0.1961 ( 23)
          -0.1049 ( 24)  0.1698 ( 25) -0.1008 ( 61) -0.1046 ( 78)  0.1102 ( 96)
          -0.1058 ( 97) -0.1067 (110)  0.1288 (137) -0.1275 (144)
 CRD 33=   0.2180 ( 12) -0.2536 ( 14) -0.2122 ( 19)  0.3040 ( 20) -0.1439 ( 21)
           0.1795 ( 22)  0.1011 ( 23) -0.1417 ( 25)  0.1667 ( 58) -0.1773 ( 61)
           0.1667 ( 63)  0.1518 ( 73) -0.1648 ( 75) -0.1648 ( 76)  0.2312 ( 79)
          -0.1197 ( 80)  0.2264 ( 81) -0.1896 ( 82) -0.2561 ( 83)  0.1455 ( 84)
           0.1289 (137)  0.1378 (144)
 CRD 34=   0.1665 ( 12)  0.1384 ( 13) -0.2514 ( 14)  0.1384 ( 15)  0.1456 ( 16)
           0.1456 ( 17) -0.1590 ( 18) -0.2136 ( 20)  0.2722 ( 21) -0.3843 ( 22)
          -0.2126 ( 23)  0.2835 ( 24) -0.4359 ( 25)  0.1090 ( 73)
 CRD 35=  -0.1756 (  1)  0.2689 (  8) -0.1709 ( 11) -0.1553 ( 18)  0.1450 ( 22)
           0.1543 ( 25)  0.1777 ( 55)  0.1804 ( 72)  0.1813 ( 93) -0.1900 (106)
           0.1041 (107)  0.1518 (109) -0.1105 (121) -0.1575 (122)  0.1128 (128)
          -0.1270 (132) -0.3300 (138)  0.1452 (139) -0.1200 (140)  0.3147 (141)
           0.1125 (142) -0.1468 (143)
 CRD 36=   0.1183 (  3) -0.1836 (  4) -0.1018 (  6) -0.1018 (  7)  0.2619 (  8)
          -0.1638 (  9)  0.1073 ( 11) -0.2475 ( 18)  0.1212 ( 21) -0.1828 ( 23)
          -0.1248 ( 54) -0.1474 ( 77) -0.1003 ( 78) -0.1023 ( 80)  0.1069 ( 86)
           0.1070 ( 87)  0.1424 ( 92) -0.1546 (102) -0.2178 (109)  0.2094 (122)
           0.1486 (137)  0.2231 (138)  0.1724 (139) -0.2579 (141) -0.1745 (143)
          -0.1037 (144)
 CRD 37=  -0.1641 (  2) -0.2232 (  3) -0.1641 (  5)  0.1408 (  6)  0.1408 (  7)
           0.2504 ( 10) -0.1502 ( 21)  0.1461 ( 24)  0.2156 ( 29)  0.2156 ( 32)
           0.1453 ( 37)  0.1453 ( 38) -0.1430 ( 39) -0.1430 ( 46) -0.2291 ( 49)
          -0.2291 ( 50) -0.1228 ( 54)  0.1091 ( 79)  0.1788 ( 85) -0.1579 ( 86)
          -0.1654 (113) -0.1474 (118) -0.1589 (126) -0.1733 (133) -0.1221 (137)
           0.1507 (138)  0.1214 (140)  0.1237 (141)  0.1282 (142) -0.1612 (144)
 CRD 38=  -0.1824 ( 12) -0.1270 ( 13) -0.1270 ( 15)  0.1237 ( 18) -0.1671 ( 19)
           0.3317 ( 21) -0.2706 ( 23)  0.1601 ( 25)  0.1419 ( 62)  0.1437 ( 73)
          -0.2191 ( 78) -0.1767 ( 81) -0.1955 ( 82)  0.1746 ( 83) -0.1389 ( 92)
           0.1019 ( 93) -0.1002 (102) -0.1209 (110) -0.1023 (114) -0.1412 (117)
          -0.1467 (123)  0.1416 (125)  0.1335 (129)  0.1243 (130)  0.1066 (131)
           0.1217 (135) -0.1223 (140)  0.1305 (141) -0.1104 (142) -0.1316 (145)
          -0.1158 (146)  0.1287 (148)
 CRD 39=  -0.1189 ( 12)  0.1262 ( 18) -0.2107 ( 19)  0.1669 ( 21)  0.1121 ( 22)
          -0.2726 ( 23)  0.2055 ( 24)  0.1017 ( 52)  0.1110 ( 73)  0.1286 ( 74)
           0.1110 ( 77) -0.2300 ( 78)  0.1684 ( 79) -0.1480 ( 81) -0.2395 ( 82)
           0.1225 ( 88)  0.1037 ( 92)  0.1517 (102) -0.1001 (106)  0.1270 (110)
           0.1535 (114)  0.1288 (123) -0.1033 (129) -0.1777 (130) -0.1743 (131)
          -0.1891 (135) -0.1312 (138)  0.1206 (140)  0.1392 (142)  0.1230 (145)
           0.1416 (146)
 CRD 40=   0.1075 ( 11)  0.1433 ( 16)  0.1433 ( 17)  0.3366 ( 21) -0.2332 ( 22)
          -0.4238 ( 24)  0.2071 ( 25) -0.1598 ( 61)  0.1357 ( 62)  0.1234 ( 73)
          -0.1852 ( 74) -0.1091 ( 75) -0.1091 ( 76) -0.2394 ( 79)  0.1759 ( 83)
          -0.1101 ( 99) -0.1048 (126) -0.1183 (133)  0.1230 (134)  0.1096 (145)
 CRD 41=  -0.2010 (  1) -0.1968 ( 11)  0.1243 ( 12)  0.1065 ( 19) -0.1017 ( 22)
          -0.1235 ( 24)  0.1039 ( 34)  0.1048 ( 52)  0.1061 ( 78)  0.1015 ( 82)
           0.1937 ( 87)  0.1159 ( 88) -0.1957 (100) -0.1098 (104) -0.2508 (107)
          -0.1185 (110) -0.1064 (117)  0.2747 (121)  0.1185 (123)  0.1247 (125)
           0.2714 (127)  0.1564 (129) -0.1449 (130) -0.1180 (131) -0.2417 (134)
          -0.1514 (135) -0.2434 (136)  0.2523 (147)  0.1746 (148)
 CRD 42=  -0.2502 (  1)  0.1090 (  3) -0.1049 (  4) -0.1093 (  6) -0.1093 (  7)
           0.1163 (  9)  0.2265 ( 11)  0.1220 ( 12) -0.1303 ( 19) -0.1515 ( 36)
           0.1535 ( 40) -0.1515 ( 44)  0.1535 ( 47) -0.1344 ( 65)  0.1440 ( 67)
           0.1440 ( 68) -0.1344 ( 71)  0.1019 ( 72) -0.1026 ( 84) -0.1112 ( 88)
          -0.1104 ( 93) -0.1114 ( 96) -0.1240 ( 97) -0.1456 (104) -0.1260 (106)
           0.1104 (112) -0.1378 (114) -0.1579 (117)  0.1044 (119)  0.1663 (125)
           0.1287 (129)  0.1491 (130)  0.1778 (131)  0.1063 (132)  0.2036 (135)
          -0.1171 (138)  0.1373 (148)
 CRD 43=   0.1829 (  1) -0.2128 (  4)  0.1939 (  9) -0.1646 ( 11)  0.1736 ( 12)
          -0.2058 ( 19) -0.1057 ( 65) -0.1057 ( 71)  0.1362 ( 80)  0.1762 ( 85)
          -0.1245 ( 86) -0.2120 ( 92) -0.1638 ( 96) -0.1325 ( 97) -0.2217 (102)
           0.1378 (110)  0.1515 (112)  0.1618 (119)  0.1193 (123)  0.1518 (128)
          -0.1022 (131) -0.1145 (135) -0.1325 (137) -0.1907 (140) -0.1929 (142)
           0.1108 (145)  0.1093 (146)
 CRD 44=   0.1537 (  2) -0.1584 (  3)  0.1537 (  5)  0.1482 (  6)  0.1482 (  7)
          -0.1623 ( 10)  0.1710 ( 13) -0.1667 ( 14)  0.1710 ( 15)  0.1466 ( 16)
           0.1466 ( 17) -0.1821 ( 20)  0.1144 ( 22)  0.1076 ( 25) -0.1232 ( 39)
          -0.1232 ( 46) -0.1064 ( 61)  0.1182 ( 62) -0.1258 ( 64) -0.1258 ( 66)
          -0.1010 ( 69) -0.1010 ( 70) -0.1227 ( 73)  0.1307 ( 74)  0.1378 ( 80)
           0.1716 ( 84)  0.1547 ( 85)  0.2017 ( 86)  0.1291 ( 94) -0.1084 ( 99)
           0.1375 (113) -0.1475 (118)  0.1581 (128) -0.1778 (132) -0.1702 (137)
          -0.1132 (141)  0.2096 (144)
 CRD 45=   0.1369 (  3) -0.1338 (  4) -0.1630 (  6) -0.1630 (  7)  0.1941 (  9)
          -0.1978 ( 12)  0.1291 ( 13)  0.1291 ( 15)  0.1790 ( 19) -0.1032 ( 20)
           0.1130 ( 34)  0.1539 ( 40)  0.1539 ( 47) -0.1081 ( 51) -0.1081 ( 53)
          -0.1113 ( 55) -0.1223 ( 67) -0.1223 ( 68)  0.1578 ( 84) -0.1694 ( 86)
          -0.1596 ( 95) -0.1175 ( 98) -0.1052 ( 99) -0.1312 (110) -0.1176 (113)
          -0.1375 (123)  0.1112 (132) -0.1053 (133)  0.1387 (137)  0.1460 (139)
           0.3012 (143) -0.1368 (146)
 CRD 46=   0.2149 (  2) -0.1483 (  4)  0.2149 (  5)  0.1290 (  6)  0.1290 (  7)
          -0.1593 ( 10) -0.1100 ( 13)  0.1522 ( 14) -0.1100 ( 15) -0.1530 ( 16)
          -0.1530 ( 17)  0.1152 ( 19)  0.1080 ( 27)  0.1080 ( 31) -0.1310 ( 36)
          -0.1222 ( 37) -0.1222 ( 38) -0.1007 ( 41) -0.1310 ( 44) -0.1007 ( 45)
          -0.1165 ( 52)  0.1094 ( 54)  0.1022 ( 65)  0.1045 ( 69)  0.1045 ( 70)
           0.1022 ( 71) -0.1508 ( 80)  0.2015 ( 85)  0.1109 ( 88) -0.1073 ( 94)
          -0.1195 ( 98) -0.1179 (118)  0.1376 (119) -0.1901 (126)  0.1776 (133)
           0.2686 (139)
 CRD 47=   0.2161 (  2)  0.2161 (  5) -0.2417 (  6) -0.2417 (  7)  0.1100 ( 10)
          -0.2106 ( 13)  0.1077 ( 14) -0.2106 ( 15)  0.2082 ( 16)  0.2082 ( 17)
          -0.1323 ( 20) -0.1339 ( 29) -0.1339 ( 32)  0.1339 ( 49)  0.1339 ( 50)
           0.1505 ( 58)  0.1505 ( 63) -0.1570 ( 75) -0.1570 ( 76) -0.1077 ( 86)
          -0.1229 (113)  0.1115 (115)  0.1429 (116) -0.1260 (118)  0.1074 (135)
          -0.1082 (136)  0.1151 (146)
 CRD 48=   0.1957 (  1) -0.1852 ( 11)  0.1417 ( 13)  0.1417 ( 15) -0.1710 ( 16)
          -0.1710 ( 17)  0.1241 ( 48) -0.1782 (104)  0.1581 (105) -0.2130 (108)
           0.1162 (110)  0.1347 (115)  0.2044 (116) -0.1319 (117) -0.1468 (121)
           0.1370 (123)  0.1257 (125) -0.1015 (129)  0.1572 (131) -0.1339 (134)
           0.2752 (135) -0.3463 (136)  0.1594 (146) -0.2417 (147)
 CRD 49=   0.1102 (  3) -0.1043 (  4)  0.1423 (  6)  0.1423 (  7) -0.1808 (  8)
          -0.1019 (  9) -0.1130 ( 12)  0.1365 ( 16)  0.1365 ( 17) -0.1623 ( 18)
          -0.1075 ( 19) -0.1938 ( 28) -0.1938 ( 30) -0.1938 ( 33) -0.1938 ( 35)
          -0.1527 ( 36) -0.1489 ( 40) -0.1527 ( 44) -0.1489 ( 47) -0.1347 ( 56)
          -0.1347 ( 57)  0.1041 ( 58) -0.1347 ( 59) -0.1347 ( 60)  0.1041 ( 63)
          -0.1098 ( 65) -0.1372 ( 67) -0.1372 ( 68) -0.1098 ( 71) -0.1610 ( 96)
           0.1495 ( 97)  0.1012 (101) -0.1422 (112) -0.1109 (113)  0.1083 (118)
           0.1172 (119)
 CRD 50=   0.2308 (  2) -0.1225 (  3)  0.2308 (  5) -0.2099 (  6) -0.2099 (  7)
           0.1214 ( 10)  0.2285 ( 13)  0.2285 ( 15) -0.1818 ( 16) -0.1818 ( 17)
           0.1287 ( 20) -0.1195 ( 29) -0.1195 ( 32)  0.1082 ( 37)  0.1082 ( 38)
           0.1321 ( 49)  0.1321 ( 50) -0.1158 ( 58) -0.1158 ( 63)  0.1323 ( 75)
           0.1323 ( 76)  0.1068 ( 85) -0.1244 ( 87)  0.1177 ( 90)  0.1283 ( 95)
           0.1036 ( 97)  0.1089 ( 98)  0.1224 (119) -0.1488 (126) -0.1357 (133)
 CRD 51=   0.1111 ( 51)  0.1111 ( 53) -0.1380 ( 87) -0.1358 ( 88)  0.1689 ( 90)
          -0.1065 ( 93)  0.1978 (100) -0.1279 (107)  0.1783 (108)  0.1123 (109)
          -0.1696 (114)  0.1352 (115)  0.1274 (117) -0.2740 (120) -0.1578 (124)
           0.1135 (125) -0.1601 (127)  0.1588 (129) -0.1185 (130) -0.1927 (135)
          -0.1069 (140)  0.1029 (142)  0.2530 (145) -0.1573 (146) -0.1460 (147)
           0.3673 (148)
 CRD 52=  -0.1050 (  1) -0.1322 ( 11)  0.1007 ( 18) -0.1134 ( 28) -0.1134 ( 30)
          -0.1134 ( 33) -0.1134 ( 35)  0.1078 ( 41)  0.1051 ( 42)  0.1051 ( 43)
           0.1078 ( 45)  0.1211 ( 89)  0.1252 ( 91)  0.2699 ( 93) -0.1160 (101)
          -0.1284 (103) -0.2678 (106)  0.1033 (108) -0.2075 (109)  0.1005 (115)
          -0.1395 (120)  0.2051 (122) -0.1005 (135)  0.2883 (140) -0.2910 (142)
           0.1132 (145)  0.1685 (148)
 CRD 53=   0.1262 (  4)  0.1352 (  8)  0.1258 (  9) -0.1031 ( 12) -0.1078 ( 18)
          -0.1033 ( 19) -0.1026 ( 29) -0.1026 ( 32) -0.1199 ( 37) -0.1199 ( 38)
          -0.1220 ( 39) -0.1220 ( 46) -0.1025 ( 49) -0.1025 ( 50) -0.1548 ( 89)
           0.2390 ( 91)  0.1816 ( 93)  0.1055 ( 94)  0.1937 ( 95) -0.1942 ( 98)
           0.1582 (101) -0.2410 (103) -0.1771 (106) -0.1238 (139)  0.1993 (140)
          -0.2024 (142)  0.1222 (143) -0.1012 (145)  0.1061 (146)
 CRD 54=  -0.1513 (  1) -0.1315 ( 11)  0.1003 ( 27)  0.1003 ( 31) -0.1648 ( 87)
           0.1197 ( 88)  0.1195 ( 89) -0.1363 ( 90)  0.1541 (100) -0.1295 (101)
          -0.2133 (108)  0.2590 (111) -0.2838 (115)  0.2090 (116)  0.2551 (120)
          -0.2367 (124)  0.1605 (135) -0.1640 (136)  0.2527 (145) -0.2675 (146)
           0.2187 (147) -0.2316 (148)

 THE DETERMINANT OF THE G MATRIX IS 10**(   -17)


                     --------------------
                     INTERNAL COORDINATES
                     --------------------

                 - - ATOMS - -         COORDINATE      COORDINATE
 NO.   TYPE    I  J  K  L  M  N        (BOHR,RAD)       (ANG,DEG)
 ----------------------------------------------------------------
   1 STRETCH   1  6                     3.6451736       1.9289429
   2 STRETCH   1  2                     2.6572748       1.4061694
   3 STRETCH   1 12                     2.0512141       1.0854558
   4 STRETCH   1 11                     2.0479751       1.0837418
   5 STRETCH   1  2                     2.6572748       1.4061694
   6 STRETCH   2  3                     2.6549690       1.4049492
   7 STRETCH   2  3                     2.6549690       1.4049492
   8 STRETCH   2 13                     2.0483689       1.0839502
   9 STRETCH   3 15                     2.0486024       1.0840738
  10 STRETCH   3 14                     2.0504600       1.0850568
  11 STRETCH   3  4                     3.6454809       1.9291055
  12 STRETCH   4  9                     2.9101877       1.5400051
  13 STRETCH   4  5                     2.6560508       1.4055217
  14 STRETCH   4 16                     2.0534597       1.0866441
  15 STRETCH   4  5                     2.6560508       1.4055217
  16 STRETCH   5  6                     2.6608214       1.4080461
  17 STRETCH   5  6                     2.6608214       1.4080461
  18 STRETCH   5 17                     2.0468142       1.0831275
  19 STRETCH   6  7                     2.8591179       1.5129802
  20 STRETCH   6 18                     2.0527280       1.0862570
  21 STRETCH   7  8                     2.4881376       1.3166658
  22 STRETCH   7 19                     2.0496506       1.0846285
  23 STRETCH   8 20                     2.0448016       1.0820625
  24 STRETCH   8  9                     2.8577520       1.5122573
  25 STRETCH   9 10                     2.3108311       1.2228392
  26 BEND      1  6  7                  1.7533303     100.4584244
  27 BEND      1  6  5                  1.8537437     106.2116893
  28 BEND      1  2  3                  2.0739192     118.8268153
  29 BEND      1  2 13                  2.0420871     117.0029699
  30 BEND      1  2  3                  2.0739192     118.8268153
  31 BEND      1  6  5                  1.8537437     106.2116893
  32 BEND      1  2 13                  2.0420871     117.0029699
  33 BEND      1  2  3                  2.0739192     118.8268153
  34 BEND      1  6 18                  1.7805179     102.0161617
  35 BEND      1  2  3                  2.0739192     118.8268153
  36 BEND      2  1 12                  2.0413883     116.9629348
  37 BEND      2  3 15                  2.0362423     116.6680877
  38 BEND      2  3 15                  2.0362423     116.6680877
  39 BEND      2  1 11                  2.0411421     116.9488249
  40 BEND      2  3 14                  2.0490727     117.4032163
  41 BEND      2  1  6                  1.8711805     107.2107477
  42 BEND      2  3  4                  1.8707767     107.1876096
  43 BEND      2  3  4                  1.8707767     107.1876096
  44 BEND      2  1 12                  2.0413883     116.9629348
  45 BEND      2  1  6                  1.8711805     107.2107477
  46 BEND      2  1 11                  2.0411421     116.9488249
  47 BEND      2  3 14                  2.0490727     117.4032163
  48 BEND      3  4  9                  1.7324279      99.2608059
  49 BEND      3  2 13                  2.0409796     116.9395155
  50 BEND      3  2 13                  2.0409796     116.9395155
  51 BEND      3  4  5                  1.8583175     106.4737503
  52 BEND      3  4 16                  1.8000771     103.1368199
  53 BEND      3  4  5                  1.8583175     106.4737503
  54 BEND      4  3 14                  1.7969353     102.9568073
  55 BEND      4  3 15                  1.6994803      97.3730491
  56 BEND      4  5  6                  2.0234447     115.9348392
  57 BEND      4  5  6                  2.0234447     115.9348392
  58 BEND      4  5 17                  2.0791533     119.1267090
  59 BEND      4  5  6                  2.0234447     115.9348392
  60 BEND      4  5  6                  2.0234447     115.9348392
  61 BEND      4  9 10                  2.1398667     122.6053292
  62 BEND      4  9  8                  1.9931065     114.1965922
  63 BEND      4  5 17                  2.0791533     119.1267090
  64 BEND      5  6  7                  1.9966904     114.4019310
  65 BEND      5  6 18                  2.0474116     117.3080465
  66 BEND      5  6  7                  1.9966904     114.4019310
  67 BEND      5  4 16                  2.0468221     117.2742670
  68 BEND      5  4 16                  2.0468221     117.2742670
  69 BEND      5  4  9                  2.0144056     115.4169419
  70 BEND      5  4  9                  2.0144056     115.4169419
  71 BEND      5  6 18                  2.0474116     117.3080465
  72 BEND      6  1 11                  1.6749296      95.9663963
  73 BEND      6  7 19                  2.0393350     116.8452859
  74 BEND      6  7  8                  2.1274673     121.8948974
  75 BEND      6  5 17                  2.0775168     119.0329417
  76 BEND      6  5 17                  2.0775168     119.0329417
  77 BEND      6  1 12                  1.8241493     104.5160551
  78 BEND      7  8  9                  2.1110031     120.9515686
  79 BEND      7  8 20                  2.1337447     122.2545664
  80 BEND      7  6 18                  1.9841855     113.6854531
  81 BEND      8  9 10                  2.1502087     123.1978826
  82 BEND      8  7 19                  2.1163823     121.2597719
  83 BEND      9  8 20                  2.0382929     116.7855809
  84 BEND      9  4 16                  1.9633012     112.4888712
  85 BEND     11  1 12                  1.9547607     111.9995372
  86 BEND     14  3 15                  1.9544336     111.9807982
  87 TORSION   1  6  5 17               1.5297497      87.6482009
  88 TORSION   1  6  7 19              -1.5148680     -86.7955409
  89 TORSION   1  6  5  4              -1.1361578     -65.0970449
  90 TORSION   1  6  7  8               1.6280526      93.2805401
  91 TORSION   1  2  3  4              -1.0305272     -59.0448607
  92 TORSION   1  2  3 14              -3.0399731    -174.1776263
  93 TORSION   1  2  3 15               0.8509131      48.7537290
  94 TORSION   2  1  6  7              -1.9635799    -112.5048384
  95 TORSION   2  1  6  5               0.1206606       6.9133434
  96 TORSION   2  1  6 18               2.2742538     130.3051452
  97 TORSION   2  3  4 16              -2.1471751    -123.0240685
  98 TORSION   2  3  4  5               0.0176742       1.0126580
  99 TORSION   2  3  4  9               2.1140375     121.1254285
 100 TORSION   3  4  5 17              -1.5996180     -91.6513587
 101 TORSION   3  4  5  6               1.0658204      61.0670088
 102 TORSION   3  2  1 12               3.0001803     171.8976695
 103 TORSION   3  2  1  6               0.9604011      55.0269273
 104 TORSION   3  4  9 10               1.6053947      91.9823435
 105 TORSION   3  4  9  8              -1.5334684     -87.8612679
 106 TORSION   3  2  1 11              -0.8937252     -51.2066809
 107 TORSION   4  9  8 20               3.1302718     179.3513623
 108 TORSION   4  9  8  7              -0.0291932      -1.6726465
 109 TORSION   4  3  2 13               1.5775728      90.3882625
 110 TORSION   4  5  6 18              -3.1120642    -178.3081432
 111 TORSION   4  5  6  7               0.7810059      44.7483442
 112 TORSION   5  4  3 14               2.1895293     125.4507859
 113 TORSION   5  4  3 15              -2.0926646    -119.9008488
 114 TORSION   5  6  7 19               2.7909164     159.9077301
 115 TORSION   5  6  7  8              -0.3493484     -20.0161888
 116 TORSION   5  4  9  8               0.4440427      25.4417752
 117 TORSION   5  4  9 10              -2.7002794    -154.7146134
 118 TORSION   5  6  1 11               2.2259393     127.5369252
 119 TORSION   5  6  1 12              -2.0572769    -117.8732814
 120 TORSION   6  7  8  9              -0.0146986      -0.8421687
 121 TORSION   6  7  8 20               3.1080280     178.0768884
 122 TORSION   6  1  2 13              -1.6473660     -94.3871167
 123 TORSION   6  5  4 16               3.0690856     175.8456531
 124 TORSION   6  5  4  9              -0.8373889     -47.9788474
 125 TORSION   7  8  9 10               3.1151473     178.4847920
 126 TORSION   7  6  1 11               0.1416988       8.1187434
 127 TORSION   7  6  5 17              -2.8362719    -162.5064099
 128 TORSION   7  6  1 12               2.1416680     122.7085368
 129 TORSION   8  7  6 18              -2.7668802    -158.5305598
 130 TORSION   8  9  4 16               2.8566366     163.6732199
 131 TORSION   9  8  7 19               3.1282800     179.2372415
 132 TORSION   9  4  3 14              -1.9972927    -114.4364436
 133 TORSION   9  4  3 15               0.0036987       0.2119217
 134 TORSION   9  4  5 17               2.7803581     159.3027852
 135 TORSION  10  9  8 20              -0.0085730      -0.4911992
 136 TORSION  10  9  4 16              -0.2876856     -16.4831687
 137 TORSION  11  1  6 18              -1.9036528    -109.0712730
 138 TORSION  11  1  2 13               2.7816931     159.3792751
 139 TORSION  12  1  6 18               0.0963164       5.5185204
 140 TORSION  12  1  2 13               0.3924133      22.4836255
 141 TORSION  13  2  3 15              -2.8241722    -161.8131478
 142 TORSION  13  2  3 14              -0.4318731     -24.7445031
 143 TORSION  14  3  4 16               0.0246800       1.4140594
 144 TORSION  15  3  4 16               2.0256714     116.0624247
 145 TORSION  16  4  5 17               0.4036473      23.1272857
 146 TORSION  17  5  6 18              -0.4461567     -25.5628973
 147 TORSION  18  6  7 19               0.3733846      21.3933591
 148 TORSION  19  7  8 20              -0.0321787      -1.8437014

     ------------------------------------------
     THE POINT GROUP IS C1 , NAXIS= 0, ORDER= 1
     ------------------------------------------

     DIMENSIONS OF THE SYMMETRY SUBSPACES ARE
 A   =   60

 ..... DONE SETTING UP THE RUN .....
 STEP CPU TIME =     0.10 TOTAL CPU TIME =          0.1 (      0.0 MIN)
 TOTAL WALL CLOCK TIME=          0.1 SECONDS, CPU UTILIZATION IS    83.33%

          -----------------------------
          INTRINSIC REACTION COORDINATE
          -----------------------------
          PACE   =GS2     
          STRIDE = 0.20000 BOHR*SQRT(AMU)
          NPOINT =      50
          NEXTPT =       0
          STOTAL =  0.0000 BOHR*SQRT(AMU)
          SAB    =  0.0000 BOHR*SQRT(AMU)
          NPRT   =       0
          NPUN   =       0

          SADDLE =       T
          TSENGY =       T
          FORWRD =       F
          EVIB   = 0.00050 HARTREE
          FREQ   =     0.0 CM**-1

          STABLZ =       F
          ELBOW  =  175.00 DEGREES
          DELTA  = 0.02500 BOHR

          READQB =       F
          EB     =        0.0000000000 HARTREES
          GBNORM =        0.0000000000 HARTREES/SQRT(AMU)-BOHR

          GCUT   = 0.0000667 HARTREES/SQRT(AMU)-BOHR
          RCUT   = 0.0006667 BOHR
          ACUT   =    5.00 DEGREES
          MXOPT  =      20
          IHUPD  =       2

 ATOMIC MASSES USED (IN AMU) ARE
     C             12.0000
     C             12.0000
     C             12.0000
     C             12.0000
     C             12.0000
     C             12.0000
     C             12.0000
     C             12.0000
     C             12.0000
     O             15.9949
     H              1.0078
     H              1.0078
     H              1.0078
     H              1.0078
     H              1.0078
     H              1.0078
     H              1.0078
     H              1.0078
     H              1.0078
     H              1.0078

 JUMP AWAY FROM SADDLE POINT WILL BE FOUND FROM THE INPUT HESSIAN MATRIX

 COMPUTING WAVEFUNCTION AT TRANSITION STATE...

          ********************
          1 ELECTRON INTEGRALS
          ********************
 ...... END OF ONE-ELECTRON INTEGRALS ......
 STEP CPU TIME =     0.02 TOTAL CPU TIME =          0.1 (      0.0 MIN)
 TOTAL WALL CLOCK TIME=          0.2 SECONDS, CPU UTILIZATION IS    75.00%

          -------------
          GUESS OPTIONS
          -------------
          GUESS =HUCKEL            NORB  =       0          NORDER=       0
          MIX   =       F          PRTMO =       F          PUNMO =       F
          TOLZ  = 1.0E-08          TOLE  = 1.0E-05
          SYMDEN=       F          PURIFY=       F

 INITIAL GUESS ORBITALS GENERATED BY HUCKEL   ROUTINE.
 HUCKEL GUESS REQUIRES     53820 WORDS.

 SYMMETRIES FOR INITIAL GUESS ORBITALS FOLLOW.   BOTH SET(S).
    36 ORBITALS ARE OCCUPIED (   10 CORE ORBITALS).
    11=A       12=A       13=A       14=A       15=A       16=A       17=A   
    18=A       19=A       20=A       21=A       22=A       23=A       24=A   
    25=A       26=A       27=A       28=A       29=A       30=A       31=A   
    32=A       33=A       34=A       35=A       36=A       37=A       38=A   
    39=A       40=A       41=A       42=A       43=A       44=A       45=A   
    46=A   
 ...... END OF INITIAL ORBITAL SELECTION ......
 STEP CPU TIME =     0.01 TOTAL CPU TIME =          0.1 (      0.0 MIN)
 TOTAL WALL CLOCK TIME=          0.2 SECONDS, CPU UTILIZATION IS    72.22%

                    ----------------------
                    AO INTEGRAL TECHNOLOGY
                    ----------------------
     S,P,L SHELL ROTATED AXIS INTEGRALS, REPROGRAMMED BY
        KAZUYA ISHIMURA (IMS) AND JOSE SIERRA (SYNSTAR).
     S,P,D,L SHELL ROTATED AXIS INTEGRALS PROGRAMMED BY
        KAZUYA ISHIMURA (INSTITUTE FOR MOLECULAR SCIENCE).
     S,P,D,F,G SHELL TO TOTAL QUARTET ANGULAR MOMENTUM SUM 5,
        ERIC PROGRAM BY GRAHAM FLETCHER (ELORET AND NASA ADVANCED
        SUPERCOMPUTING DIVISION, AMES RESEARCH CENTER).
     S,P,D,F,G,L SHELL GENERAL RYS QUADRATURE PROGRAMMED BY
        MICHEL DUPUIS (PACIFIC NORTHWEST NATIONAL LABORATORY).

          --------------------
          2 ELECTRON INTEGRALS
          --------------------

 THE -PK- OPTION IS OFF, THE INTEGRALS ARE NOT IN SUPERMATRIX FORM.
 STORING   15000 INTEGRALS/RECORD ON DISK, USING 12 BYTES/INTEGRAL.
 TWO ELECTRON INTEGRAL EVALUATION REQUIRES   89821 WORDS OF MEMORY.
 SCHWARZ INEQUALITY OVERHEAD:      1797 INTEGRALS, T=        0.00
 II,JST,KST,LST =  1  1  1  1 NREC =         1 INTLOC =    1
 II,JST,KST,LST =  2  1  1  1 NREC =         1 INTLOC =    2
 II,JST,KST,LST =  3  1  1  1 NREC =         1 INTLOC =   34
 II,JST,KST,LST =  4  1  1  1 NREC =         1 INTLOC =  144
 II,JST,KST,LST =  5  1  1  1 NREC =         1 INTLOC = 1366
 II,JST,KST,LST =  6  1  1  1 NREC =         1 INTLOC = 1961
 II,JST,KST,LST =  7  1  1  1 NREC =         1 INTLOC = 6862
 II,JST,KST,LST =  8  1  1  1 NREC =         1 INTLOC = 8478
 II,JST,KST,LST =  9  1  1  1 NREC =         2 INTLOC = 5910
 II,JST,KST,LST = 10  1  1  1 NREC =         2 INTLOC = 9711
 II,JST,KST,LST = 11  1  1  1 NREC =         4 INTLOC = 5075
 II,JST,KST,LST = 12  1  1  1 NREC =         4 INTLOC =12191
 II,JST,KST,LST = 13  1  1  1 NREC =         7 INTLOC =12344
 II,JST,KST,LST = 14  1  1  1 NREC =         8 INTLOC = 8894
 II,JST,KST,LST = 15  1  1  1 NREC =        13 INTLOC = 6599
 II,JST,KST,LST = 16  1  1  1 NREC =        14 INTLOC = 9371
 II,JST,KST,LST = 17  1  1  1 NREC =        21 INTLOC =13769
 II,JST,KST,LST = 18  1  1  1 NREC =        23 INTLOC = 9915
 II,JST,KST,LST = 19  1  1  1 NREC =        34 INTLOC = 2965
 II,JST,KST,LST = 20  1  1  1 NREC =        35 INTLOC =13935
 II,JST,KST,LST = 21  1  1  1 NREC =        48 INTLOC = 3076
 II,JST,KST,LST = 22  1  1  1 NREC =        52 INTLOC = 3932
 II,JST,KST,LST = 23  1  1  1 NREC =        56 INTLOC = 3664
 II,JST,KST,LST = 24  1  1  1 NREC =        60 INTLOC = 7935
 II,JST,KST,LST = 25  1  1  1 NREC =        65 INTLOC = 4748
 II,JST,KST,LST = 26  1  1  1 NREC =        70 INTLOC = 8226
 II,JST,KST,LST = 27  1  1  1 NREC =        76 INTLOC =  264
 II,JST,KST,LST = 28  1  1  1 NREC =        81 INTLOC =10848
 II,JST,KST,LST = 29  1  1  1 NREC =        87 INTLOC = 9071
 II,JST,KST,LST = 30  1  1  1 NREC =        93 INTLOC =12073
 SCHWARZ INEQUALITY TEST SKIPPED       24064 INTEGRAL BLOCKS.
 TOTAL NUMBER OF NONZERO TWO-ELECTRON INTEGRALS =             1490150
        100 INTEGRAL RECORDS WERE STORED ON DISK FILE  8.
  ...... END OF TWO-ELECTRON INTEGRALS .....
 STEP CPU TIME =     0.31 TOTAL CPU TIME =          0.4 (      0.0 MIN)
 TOTAL WALL CLOCK TIME=          0.5 SECONDS, CPU UTILIZATION IS    89.80%

          --------------------------
                 RHF SCF CALCULATION
          --------------------------

     NUCLEAR ENERGY =       511.5054475245
     MAXIT =   30     NPUNCH=    2
     EXTRAP=T  DAMP=F  SHIFT=F  RSTRCT=F  DIIS=F  DEM=F  SOSCF=T
     DENSITY MATRIX CONV=  1.00E-05
     SOSCF WILL OPTIMIZE     864 ORBITAL ROTATIONS, SOGTOL=   0.250
     MEMORY REQUIRED FOR RHF ITERS=     59496 WORDS.

 ITER EX DEM     TOTAL ENERGY        E CHANGE  DENSITY CHANGE     ORB. GRAD
   1  0  0     -415.5138157565  -415.5138157565   0.525901128   0.000000000
          ---------------START SECOND ORDER SCF---------------
   2  1  0     -416.0269704640    -0.5131547074   0.306139005   0.066171621
   3  2  0     -416.0574910475    -0.0305205836   0.149773838   0.049848864
   4  3  0     -416.0929919404    -0.0355008928   0.030899169   0.007825439
   5  4  0     -416.0939315835    -0.0009396431   0.007365906   0.003106259
   6  5  0     -416.0940485551    -0.0001169716   0.002345107   0.000765052
   7  6  0     -416.0940618420    -0.0000132869   0.000800033   0.000260007
   8  7  0     -416.0940638049    -0.0000019629   0.000263784   0.000073370
   9  8  0     -416.0940640089    -0.0000002040   0.000148728   0.000030803
  10  9  0     -416.0940640497    -0.0000000409   0.000098894   0.000017055
  11 10  0     -416.0940640566    -0.0000000068   0.000023338   0.000004098
  12 11  0     -416.0940640579    -0.0000000014   0.000011936   0.000001604
  13 12  0     -416.0940640581    -0.0000000002   0.000003820   0.000000700
  14 13  0     -416.0940640581    -0.0000000000   0.000001194   0.000000249

          -----------------
          DENSITY CONVERGED
          -----------------
     TIME TO FORM FOCK OPERATORS=       0.3 SECONDS (       0.0 SEC/ITER)
     TIME TO SOLVE SCF EQUATIONS=       0.1 SECONDS (       0.0 SEC/ITER)

 FINAL RHF ENERGY IS     -416.0940640581 AFTER  14 ITERATIONS

          ------------
          EIGENVECTORS
          ------------

                      1          2          3          4          5
                  -20.2647   -11.1198   -11.0568   -11.0499   -11.0471
                     A          A          A          A          A   
    1  C  1  S   -0.000000   0.000023  -0.026035  -0.005835   0.003757
    2  C  1  S    0.000003  -0.000004  -0.004013   0.000030   0.000110
    3  C  1  X   -0.000000   0.000011  -0.002659  -0.000282  -0.000032
    4  C  1  Y   -0.000003   0.000010   0.000461  -0.000029   0.000006
    5  C  1  Z    0.000000  -0.000008  -0.000386  -0.000116  -0.000016
    6  C  2  S   -0.000001   0.000011  -0.000488   0.000059  -0.001503
    7  C  2  S    0.000012  -0.000035   0.000324   0.000058   0.002144
    8  C  2  X    0.000001   0.000019   0.000111   0.000050   0.000703
    9  C  2  Y    0.000006  -0.000037  -0.000118   0.000019   0.001255
   10  C  2  Z    0.000008  -0.000051  -0.000151  -0.000032   0.000298
   11  C  3  S   -0.000005  -0.000234  -0.000698   0.000886  -0.298478
   12  C  3  S   -0.000002   0.000320  -0.000025   0.000067  -0.013838
   13  C  3  X    0.000043  -0.000255  -0.000043   0.000024  -0.002095
   14  C  3  Y    0.000018   0.000062   0.000058   0.000022   0.000678
   15  C  3  Z    0.000007  -0.000066   0.000051   0.000005  -0.000284
   16  C  4  S   -0.000024  -0.001697  -0.004301  -0.008471   0.945823
   17  C  4  S    0.000270  -0.005337  -0.000086  -0.000334   0.035226
   18  C  4  X    0.000144  -0.001795   0.000070  -0.000018   0.000520
   19  C  4  Y    0.000409  -0.002317   0.000039   0.000057  -0.000803
   20  C  4  Z    0.000189   0.002737   0.000194   0.000160  -0.000091
   21  C  5  S    0.000003  -0.000285   0.003066  -0.001097   0.004028
   22  C  5  S    0.000029   0.000056  -0.006844   0.000033  -0.006632
   23  C  5  X   -0.000042  -0.000038   0.000990  -0.000086   0.000269
   24  C  5  Y    0.000002  -0.000012   0.001734  -0.000010  -0.004341
   25  C  5  Z    0.000058   0.000028   0.004104   0.000118  -0.000568
   26  C  6  S    0.000003  -0.000243   0.991562   0.018749   0.004232
   27  C  6  S    0.000006  -0.000052   0.036322  -0.004975   0.000161
   28  C  6  X    0.000001  -0.000043   0.001547  -0.001667   0.000043
   29  C  6  Y   -0.000040  -0.000090   0.000282  -0.002239  -0.000199
   30  C  6  Z   -0.000009   0.000022   0.000563   0.003041   0.000028
   31  C  7  S    0.000005  -0.000271  -0.017951   0.991817   0.008368
   32  C  7  S    0.000054   0.000107  -0.006628   0.035846   0.000231
   33  C  7  X    0.000028  -0.000029   0.001466   0.000446   0.000040
   34  C  7  Y    0.000031  -0.000012   0.002232   0.001631  -0.000072
   35  C  7  Z   -0.000065   0.000083  -0.003397   0.000127  -0.000144
   36  C  8  S   -0.000025  -0.001007  -0.000975   0.020132  -0.001134
   37  C  8  S    0.000269  -0.005676   0.000302  -0.007398   0.000014
   38  C  8  X    0.000198   0.000202  -0.000033   0.001399   0.000061
   39  C  8  Y    0.000470  -0.002084  -0.000126   0.004318   0.000025
   40  C  8  Z   -0.000061  -0.003548   0.000114   0.000515  -0.000007
   41  C  9  S    0.000547   0.992569   0.000254   0.000332   0.002489
   42  C  9  S   -0.007209   0.032680  -0.000002   0.000162  -0.005432
   43  C  9  X   -0.002018   0.000092   0.000038   0.000046   0.001535
   44  C  9  Y   -0.005987   0.000445   0.000108   0.000142   0.002220
   45  C  9  Z   -0.000960  -0.000116   0.000080   0.000012  -0.003008
   46  O 10  S    0.994266   0.000160   0.000005   0.000013  -0.000018
   47  O 10  S    0.026005  -0.005798  -0.000052  -0.000116   0.000224
   48  O 10  X   -0.001785   0.000549   0.000009   0.000015  -0.000059
   49  O 10  Y   -0.005264   0.001606   0.000033   0.000058  -0.000135
   50  O 10  Z   -0.000851   0.000281  -0.000002   0.000027   0.000163
   51  H 11  S   -0.000002   0.000007   0.000336  -0.000976  -0.000027
   52  H 12  S   -0.000002   0.000002   0.000335  -0.000018  -0.000012
   53  H 13  S   -0.000002   0.000007  -0.000001   0.000001  -0.000017
   54  H 14  S   -0.000007  -0.000037  -0.000022  -0.000016   0.002221
   55  H 15  S    0.000085  -0.001089   0.000005  -0.000048   0.002239
   56  H 16  S   -0.000178  -0.000020  -0.000095  -0.000000  -0.006680
   57  H 17  S   -0.000020  -0.000055   0.000086  -0.000084   0.000076
   58  H 18  S   -0.000015  -0.000024  -0.006943  -0.000095  -0.000143
   59  H 19  S   -0.000022  -0.000038   0.000206  -0.006826  -0.000111
   60  H 20  S   -0.000191   0.000013  -0.000034   0.000010  -0.000063

                      6          7          8          9         10
                  -11.0460   -11.0458   -11.0267   -11.0148   -11.0078
                     A          A          A          A          A   
    1  C  1  S   -0.193518   0.972721  -0.000211   0.000870  -0.002463
    2  C  1  S   -0.006964   0.035520   0.000043   0.000285  -0.007131
    3  C  1  X    0.000167  -0.001432   0.000002  -0.000062   0.001256
    4  C  1  Y   -0.000254   0.000671   0.000003   0.000039  -0.002555
    5  C  1  Z   -0.000019   0.000053  -0.000051  -0.000066  -0.003664
    6  C  2  S    0.002333   0.003794   0.000073  -0.016940   0.991973
    7  C  2  S   -0.005006  -0.007934   0.000026  -0.001097   0.036617
    8  C  2  X   -0.001684  -0.001628   0.000008  -0.000652   0.002640
    9  C  2  Y   -0.004145   0.001755  -0.000004   0.000202  -0.000516
   10  C  2  Z   -0.001499   0.003299   0.000004  -0.000178   0.000285
   11  C  3  S    0.927769   0.185785  -0.000269   0.000792  -0.002541
   12  C  3  S    0.033012   0.006734   0.000090   0.000296  -0.007149
   13  C  3  X   -0.002097  -0.000493   0.000005  -0.000055   0.002096
   14  C  3  Y    0.000106   0.000086   0.000077   0.000038   0.004053
   15  C  3  Z   -0.000630  -0.000011  -0.000029  -0.000021   0.000853
   16  C  4  S    0.294343   0.054749   0.001338  -0.003213   0.000510
   17  C  4  S    0.007850   0.001440   0.000231  -0.007191   0.000039
   18  C  4  X    0.002906   0.000614   0.000055  -0.000249   0.000048
   19  C  4  Y   -0.000831  -0.000161   0.000025   0.004571   0.000156
   20  C  4  Z    0.000407   0.000130   0.000039   0.000499   0.000023
   21  C  5  S    0.000661  -0.000609  -0.002685   0.991965   0.017172
   22  C  5  S   -0.001925  -0.000441  -0.000212   0.036578   0.000150
   23  C  5  X    0.000048  -0.000001  -0.000073  -0.002299   0.000612
   24  C  5  Y   -0.001248  -0.000213  -0.000127   0.000906  -0.000087
   25  C  5  Z   -0.000179  -0.000014   0.000173  -0.000812   0.000021
   26  C  6  S   -0.003286   0.026948   0.000631  -0.002254   0.000391
   27  C  6  S    0.000478  -0.002007   0.000394  -0.007125   0.000042
   28  C  6  X   -0.000473   0.002699   0.000083  -0.000973   0.000007
   29  C  6  Y   -0.000041  -0.000518  -0.000008  -0.001648  -0.000092
   30  C  6  Z   -0.000057   0.000304  -0.000145  -0.004180  -0.000128
   31  C  7  S    0.000604   0.005576  -0.019606   0.001155  -0.000067
   32  C  7  S    0.000012   0.000182  -0.008948   0.000135   0.000008
   33  C  7  X    0.000020  -0.000034  -0.001457  -0.000112  -0.000032
   34  C  7  Y   -0.000032   0.000002  -0.004448  -0.000081   0.000037
   35  C  7  Z   -0.000028  -0.000070  -0.000516  -0.000131   0.000003
   36  C  8  S   -0.000173   0.000264   0.991965   0.002776  -0.000032
   37  C  8  S    0.000062   0.000026   0.036554   0.000038  -0.000015
   38  C  8  X   -0.000020  -0.000023  -0.000563  -0.000008  -0.000001
   39  C  8  Y    0.000031   0.000008  -0.001834   0.000110   0.000004
   40  C  8  Z    0.000003  -0.000006  -0.000030  -0.000171  -0.000002
   41  C  9  S    0.001042   0.000179   0.001996   0.000354  -0.000008
   42  C  9  S   -0.001535  -0.000271  -0.005870   0.000110  -0.000015
   43  C  9  X    0.000436   0.000075  -0.000313  -0.000084  -0.000033
[...]
   46  O 10  S    0.001449  -0.020968  -0.008928  -0.010183   0.084395
   47  O 10  S   -0.009679   0.147274   0.062633   0.073540  -0.611160
   48  O 10  X    0.003741  -0.043940  -0.008748  -0.020127   0.133790
   49  O 10  Y    0.035302  -0.177302  -0.050708  -0.095479   0.660104
   50  O 10  Z   -0.156963   0.043222  -0.162366   0.096817   0.114324
   51  H 11  S    0.702124   0.404321  -0.362680  -0.130794  -0.002427
   52  H 12  S    0.030356   0.794434   0.364990  -0.002299   0.113389
   53  H 13  S    0.221154  -0.120955  -0.243721  -0.067836   0.161321
   54  H 14  S    0.144947  -0.214350  -0.191718   0.041842  -0.199285
   55  H 15  S   -0.082651   0.015455   0.022601  -0.050886   0.143563
   56  H 16  S    0.449510  -0.082905   0.369214   0.507009  -0.024260
   57  H 17  S   -0.119592  -0.043411   0.330335  -0.545729   0.277615
   58  H 18  S    0.011242  -0.646475  -0.268497   0.024011  -0.239354
   59  H 19  S    0.124029   0.213877  -0.262124   0.455917   0.408507
   60  H 20  S   -0.468617   0.228544  -0.286705  -0.478376  -0.146014

                     56         57         58         59         60
                    0.9333     0.9458     1.0466     1.0751     1.1299
                     A          A          A          A          A   
    1  C  1  S    0.001601  -0.051667   0.016991   0.001771  -0.004766
    2  C  1  S   -0.012844   0.335627  -0.114358  -0.010892   0.030831
    3  C  1  X    0.075232  -0.100458   0.091975   0.030014   0.023885
    4  C  1  Y   -0.109813   0.387079   0.163981   0.056843  -0.072149
    5  C  1  Z   -0.064497   0.119778  -0.255798  -0.140452  -0.003417
    6  C  2  S    0.005310  -0.012678   0.102505   0.023474  -0.006104
    7  C  2  S   -0.044839   0.112232  -0.837811  -0.194043   0.045398
    8  C  2  X    0.110384  -0.374223   0.070151   0.017935   0.011169
    9  C  2  Y   -0.008727   0.032064  -1.148296  -0.305948   0.033850
   10  C  2  Z   -0.244269   0.782413   0.099597   0.019774  -0.030809
   11  C  3  S   -0.001651   0.004604  -0.109731  -0.028072   0.003676
   12  C  3  S    0.011091  -0.029779   0.885477   0.228454  -0.030040
   13  C  3  X   -0.121018   0.370493   0.049644   0.011786  -0.008639
   14  C  3  Y    0.000366  -0.008012  -1.091054  -0.271808   0.040698
   15  C  3  Z    0.259255  -0.785889   0.104337   0.030534   0.005778
   16  C  4  S   -0.061488  -0.013325  -0.016498   0.055857  -0.062108
   17  C  4  S    0.475714   0.106090   0.139101  -0.477609   0.502255
   18  C  4  X   -0.163908  -0.019510  -0.098299   0.319615  -0.278120
   19  C  4  Y   -0.465735  -0.143104  -0.229783   0.759732  -0.482508
   20  C  4  Z    0.452205   0.187138  -0.045438   0.017241  -0.452351
   21  C  5  S    0.054957   0.010350   0.021255  -0.058630   0.065043
   22  C  5  S   -0.427085  -0.090292  -0.177530   0.498144  -0.529140
   23  C  5  X   -0.218739  -0.083302  -0.110236   0.375140  -0.209122
   24  C  5  Y   -0.351152  -0.020302  -0.189702   0.686491  -0.535751
   25  C  5  Z   -0.495052  -0.297615  -0.025246   0.219355   0.149882
   26  C  6  S    0.080650   0.029265  -0.001764   0.001280  -0.010787
   27  C  6  S   -0.530129  -0.188181   0.009954  -0.008732   0.066446
   28  C  6  X   -0.158098  -0.057452   0.007496  -0.010495   0.117324
   29  C  6  Y    0.023079  -0.195254  -0.018052  -0.063178   0.273478
   30  C  6  Z    0.023618  -0.070165  -0.015005   0.358650   0.050236
   31  C  7  S    0.050321   0.014640  -0.017961   0.057818   0.065495
   32  C  7  S   -0.394816  -0.119317   0.148976  -0.495140  -0.535810
   33  C  7  X   -0.257115  -0.092621   0.092313  -0.393452  -0.202519
   34  C  7  Y   -0.468101  -0.105887   0.166185  -0.717954  -0.482067
   35  C  7  Z    0.389595   0.209578   0.025536  -0.001003  -0.306454
   36  C  8  S   -0.060534  -0.014716   0.013253  -0.056113  -0.062882
   37  C  8  S    0.469830   0.114272  -0.112690   0.480819   0.510252
   38  C  8  X   -0.108229  -0.028397   0.081333  -0.312585  -0.312862
   39  C  8  Y   -0.295380  -0.104675   0.189330  -0.733322  -0.599466
   40  C  8  Z   -0.594443  -0.172318   0.058324  -0.220094   0.273120
   41  C  9  S   -0.034266  -0.036991  -0.001581  -0.000198  -0.029886
   42  C  9  S    0.232547   0.245887   0.012141   0.001754   0.209851
   43  C  9  X   -0.041792   0.005567   0.009221   0.016265   0.209315
   44  C  9  Y   -0.424875   0.052346   0.029685   0.057154   0.825056
   45  C  9  Z   -0.063880   0.021616   0.104554  -0.365855   0.122953
   46  O 10  S   -0.023354   0.014386   0.003673   0.000404   0.065788
   47  O 10  S    0.177816  -0.103575  -0.027961  -0.003214  -0.508266
   48  O 10  X   -0.041501   0.021498   0.004089  -0.002033   0.074162
   49  O 10  Y   -0.176817   0.114735   0.030792  -0.005374   0.506406
   50  O 10  Z   -0.025893   0.013079  -0.012059   0.061851   0.074256
   51  H 11  S   -0.015567  -0.138669  -0.139897  -0.089695   0.006775
   52  H 12  S   -0.056422   0.109582   0.166760   0.053194  -0.043642
   53  H 13  S    0.188809  -0.598141  -0.121167  -0.036489   0.016226
   54  H 14  S   -0.186460   0.562106   0.081652   0.015353  -0.010278
   55  H 15  S    0.183489  -0.549870   0.116746   0.029087  -0.002125
   56  H 16  S   -0.339038  -0.129810   0.047385  -0.069012   0.241131
   57  H 17  S    0.235904   0.183448  -0.022553   0.055819  -0.141201
   58  H 18  S    0.210371  -0.063728  -0.020355  -0.005255   0.117870
   59  H 19  S    0.245898   0.150151   0.020143  -0.051312  -0.142108
   60  H 20  S   -0.360739  -0.090631  -0.021881   0.069373   0.242844


                     --------------------
                     INTERNAL COORDINATES
                     --------------------

                 - - ATOMS - -         COORDINATE      COORDINATE
 NO.   TYPE    I  J  K  L  M  N        (BOHR,RAD)       (ANG,DEG)
 ----------------------------------------------------------------
   1 STRETCH   1  6                     2.9903746       1.5824382
   2 STRETCH   1  2                     2.8893675       1.5289875
   3 STRETCH   1 12                     2.0552894       1.0876124
   4 STRETCH   1 11                     2.0563842       1.0881917
   5 STRETCH   1  2                     2.8893675       1.5289875
   6 STRETCH   2  3                     2.4735527       1.3089478
   7 STRETCH   2  3                     2.4735527       1.3089478
   8 STRETCH   2 13                     2.0492142       1.0843976
   9 STRETCH   3 15                     2.0439570       1.0816155
  10 STRETCH   3 14                     2.0432617       1.0812476
  11 STRETCH   3  4                     6.6235533       3.5050337
  12 STRETCH   4  9                     2.8592322       1.5130406
  13 STRETCH   4  5                     2.4826949       1.3137857
  14 STRETCH   4 16                     2.0458683       1.0826270
  15 STRETCH   4  5                     2.4826949       1.3137857
  16 STRETCH   5  6                     2.8842283       1.5262680
  17 STRETCH   5  6                     2.8842283       1.5262680
  18 STRETCH   5 17                     2.0496526       1.0846295
  19 STRETCH   6  7                     2.8833113       1.5257827
  20 STRETCH   6 18                     2.0624194       1.0913854
  21 STRETCH   7  8                     2.4804470       1.3125961
  22 STRETCH   7 19                     2.0499679       1.0847964
  23 STRETCH   8 20                     2.0457621       1.0825708
  24 STRETCH   8  9                     2.8565711       1.5116325
  25 STRETCH   9 10                     2.3161958       1.2256781
  26 BEND      1  6  7                  1.9205502     110.0394209
  27 BEND      1  6  5                  1.9469919     111.5544168
  28 BEND      1  2  3                  2.1906359     125.5141941
  29 BEND      1  2 13                  2.0080254     115.0513807
  30 BEND      1  2  3                  2.1906359     125.5141941
  31 BEND      1  6  5                  1.9469919     111.5544168
  32 BEND      1  2 13                  2.0080254     115.0513807
  33 BEND      1  2  3                  2.1906359     125.5141941
  34 BEND      1  6 18                  1.8699898     107.1425241
  35 BEND      1  2  3                  2.1906359     125.5141941
  36 BEND      2  1 12                  1.8954332     108.6003235
  37 BEND      2  3 15                  2.1385019     122.5271356
  38 BEND      2  3 15                  2.1385019     122.5271356
  39 BEND      2  1 11                  1.9173309     109.8549699
  40 BEND      2  3 14                  2.1242492     121.7105131
  41 BEND      2  1  6                  1.9900354     114.0206301
  42 BEND      2  3  4                  1.2927687      74.0701879
  43 BEND      2  3  4                  1.2927687      74.0701879
  44 BEND      2  1 12                  1.8954332     108.6003235
  45 BEND      2  1  6                  1.9900354     114.0206301
  46 BEND      2  1 11                  1.9173309     109.8549699
  47 BEND      2  3 14                  2.1242492     121.7105131
  48 BEND      3  4  9                  1.4191370      81.3105627
  49 BEND      3  2 13                  2.0841287     119.4117784
  50 BEND      3  2 13                  2.0841287     119.4117784
  51 BEND      3  4  5                  1.3081124      74.9493169
  52 BEND      3  4 16                  1.9918688     114.1256757
  53 BEND      3  4  5                  1.3081124      74.9493169
  54 BEND      4  3 14                  1.9321127     110.7019008
  55 BEND      4  3 15                  1.5114064      86.5972096
  56 BEND      4  5  6                  2.1469981     123.0139280
  57 BEND      4  5  6                  2.1469981     123.0139280
  58 BEND      4  5 17                  2.1097934     120.8822577
  59 BEND      4  5  6                  2.1469981     123.0139280
  60 BEND      4  5  6                  2.1469981     123.0139280
  61 BEND      4  9 10                  2.1490292     123.1303008
  62 BEND      4  9  8                  1.9912746     114.0916317
  63 BEND      4  5 17                  2.1097934     120.8822577
  64 BEND      5  6  7                  1.9414258     111.2355069
  65 BEND      5  6 18                  1.8959952     108.6325237
  66 BEND      5  6  7                  1.9414258     111.2355069
  67 BEND      5  4 16                  2.1268969     121.8622135
  68 BEND      5  4 16                  2.1268969     121.8622135
  69 BEND      5  4  9                  2.1195618     121.4419466
  70 BEND      5  4  9                  2.1195618     121.4419466
  71 BEND      5  6 18                  1.8959952     108.6325237
  72 BEND      6  1 11                  1.8934870     108.4888122
  73 BEND      6  7 19                  2.0178731     115.6156125
  74 BEND      6  7  8                  2.1534948     123.3861620
  75 BEND      6  5 17                  2.0254395     116.0491330
  76 BEND      6  5 17                  2.0254395     116.0491330
  77 BEND      6  1 12                  1.8934050     108.4841137
  78 BEND      7  8  9                  2.1148667     121.1729357
  79 BEND      7  8 20                  2.1291733     121.9926453
  80 BEND      7  6 18                  1.8862935     108.0766564
  81 BEND      8  9 10                  2.1428283     122.7750164
  82 BEND      8  7 19                  2.1109515     120.9486121
  83 BEND      9  8 20                  2.0389801     116.8249555
  84 BEND      9  4 16                  2.0366010     116.6886436
  85 BEND     11  1 12                  1.8704021     107.1661481
  86 BEND     14  3 15                  2.0204341     115.7623439
  87 TORSION   1  6  5 17               1.2898433      73.9025797
  88 TORSION   1  6  7 19              -1.2751064     -73.0582165
  89 TORSION   1  6  5  4              -1.8051210    -103.4258120
  90 TORSION   1  6  7  8               1.8220733     104.3971110
  91 TORSION   1  2  3  4              -1.2893839     -73.8762534
  92 TORSION   1  2  3 14              -3.1188378    -178.6962412
  93 TORSION   1  2  3 15               0.0233249       1.3364196
  94 TORSION   2  1  6  7              -1.8109612    -103.7604331
  95 TORSION   2  1  6  5               0.3525465      20.1994251
  96 TORSION   2  1  6 18               2.4255162     138.9718439
  97 TORSION   2  3  4 16              -1.9403503    -111.1738827
  98 TORSION   2  3  4  5               0.1294130       7.4148167
  99 TORSION   2  3  4  9               2.3282153     133.3969107
 100 TORSION   3  4  5 17              -1.9083269    -109.3390772
 101 TORSION   3  4  5  6               1.1844519      67.8640957
 102 TORSION   3  2  1 12              -2.7536602    -157.7731079
 103 TORSION   3  2  1  6               1.4163037      81.1482234
 104 TORSION   3  4  9 10               1.6693342      95.6458037
 105 TORSION   3  4  9  8              -1.4614354     -83.7340799
 106 TORSION   3  2  1 11              -0.7131635     -40.8612585
 107 TORSION   4  9  8 20              -2.8547372    -163.5643919
 108 TORSION   4  9  8  7               0.3060108      17.5331257
 109 TORSION   4  3  2 13               1.8204283     104.3028562
 110 TORSION   4  5  6 18               2.4206660     138.6939444
 111 TORSION   4  5  6  7               0.3465623      19.8565564
 112 TORSION   5  4  3 14               2.1968635     125.8710043
 113 TORSION   5  4  3 15              -2.0565940    -117.8341579
 114 TORSION   5  6  7 19               2.8413445     162.7970477
 115 TORSION   5  6  7  8              -0.3446611     -19.7476249
 116 TORSION   5  4  9  8              -0.3036191     -17.3960957
 117 TORSION   5  4  9 10               2.8271504     161.9837878
 118 TORSION   5  6  1 11               2.4950855     142.9578675
 119 TORSION   5  6  1 12              -1.7618022    -100.9438311
 120 TORSION   6  7  8  9               0.0258676       1.4821015
 121 TORSION   6  7  8 20              -3.0955697    -177.3630809
 122 TORSION   6  1  2 13              -1.6947302     -97.1008867
 123 TORSION   6  5  4 16               3.0928467     177.2070653
 124 TORSION   6  5  4  9              -0.0311469      -1.7845844
 125 TORSION   7  8  9 10              -2.8248022    -161.8492457
 126 TORSION   7  6  1 11               0.3315778      18.9980093
 127 TORSION   7  6  5 17              -2.8416587    -162.8150519
 128 TORSION   7  6  1 12               2.3578754     135.0963107
 129 TORSION   8  7  6 18              -2.4245708    -138.9176720
 130 TORSION   8  9  4 16               2.8547030     163.5624333
 131 TORSION   9  8  7 19               3.1207627     178.8065289
 132 TORSION   9  4  3 14              -1.8875195    -108.1469018
 133 TORSION   9  4  3 15               0.1422083       8.1479361
 134 TORSION   9  4  5 17              -3.1239257    -178.9877572
 135 TORSION  10  9  8 20               0.2976351      17.0532368
 136 TORSION  10  9  4 16              -0.2977127     -17.0576831
 137 TORSION  11  1  6 18              -1.7151301     -98.2697137
 138 TORSION  11  1  2 13               2.4589880     140.8896314
 139 TORSION  12  1  6 18               0.3111676      17.8285877
 140 TORSION  12  1  2 13               0.4184912      23.9777820
 141 TORSION  13  2  3 15               3.1331370     179.5155291
 142 TORSION  13  2  3 14              -0.0090257      -0.5171317
 143 TORSION  14  3  4 16               0.1271002       7.2823049
 144 TORSION  15  3  4 16               2.1568280     123.5771427
 145 TORSION  16  4  5 17               0.0000679       0.0038925
 146 TORSION  17  5  6 18              -0.7675550     -43.9776639
 147 TORSION  18  6  7 19               0.7614348      43.6270006
 148 TORSION  19  7  8 20              -0.0006746      -0.0386536

 THE NUCLEAR REPULSION AT THE IRC POINT IS      494.9191395188

 * * * IRC RESTART INFORMATION * * *
 COORDINATES FOR $DATA AND ENTIRE $IRC GROUP FOLLOW

 COORDINATES OF SYMMETRY UNIQUE ATOMS (ANGS)
   ATOM   CHARGE       X              Y              Z
 ------------------------------------------------------------
 C           6.0  -2.9859460292  -1.0624425592  -0.2302436486
 C           6.0  -3.6006237518  -0.1264975900   0.8109005372
 C           6.0  -3.6776178015   1.1763513482   0.7108958328
 C           6.0  -0.3159547660   0.4613239468   1.3988047678
 C           6.0  -0.8799895176  -0.7085922974   1.2008312066
 C           6.0  -1.4079927186  -1.1577736946  -0.1589270967
 C           6.0  -0.7835150254  -0.3460079155  -1.2898898941
 C           6.0  -0.2159606497   0.8239725638  -1.1111827264
 C           6.0  -0.1135872474   1.4420140852   0.2645269232
 O           8.0   0.1026246769   2.6354426797   0.4413530300
 H           1.0  -3.2672455946  -0.7385101264  -1.2302934346
 H           1.0  -3.3983763149  -2.0586673937  -0.0876322934
 H           1.0  -3.9692607862  -0.6145723099   1.7063377807
 H           1.0  -4.1079982355   1.7821960780   1.4962755219
 H           1.0  -3.3187470363   1.7153655532  -0.1554572408
 H           1.0   0.0120824894   0.7788291754   2.3804682375
 H           1.0  -1.0353507221  -1.3980875669   2.0235585817
 H           1.0  -1.1419969496  -2.2057817542  -0.3074111071
 H           1.0  -0.8721567888  -0.7774660430  -2.2812373184
 H           1.0   0.1831665589   1.3998760134  -1.9364052102
 $IRC   PACE=GS2        STRIDE= 0.20000   NPOINT=??
        STOTAL=  9.995335   NEXTPT=  51
        NPRT= 0   NPUN= 0   SADDLE=.FALSE.
        GA(   1)= 7.488525256E-06, 8.615010304E-04,-9.095916675E-04
        GA(   4)=-3.126058251E-04,-1.191841598E-04,-2.224492537E-04
        GA(   7)= 1.803205497E-03, 2.329613225E-04, 2.002734728E-03
        GA(  10)=-5.258275542E-04, 1.950943395E-04,-1.996197886E-05
        GA(  13)=-3.507916294E-04, 9.335320033E-05, 6.884694253E-05
        GA(  16)=-2.233801559E-05,-1.106449251E-04,-1.159524257E-05
        GA(  19)= 9.878212566E-04,-7.822601251E-04, 4.869173805E-05
        GA(  22)= 7.013962240E-04,-6.731524184E-04,-8.930283633E-05
        GA(  25)=-5.528175774E-04,-2.779286353E-05,-2.433033936E-04
        GA(  28)=-2.120243773E-03, 2.432529295E-04,-7.500862852E-04
        GA(  31)= 7.849332418E-05, 1.910088057E-04,-4.333014024E-05
        GA(  34)=-4.277468791E-05, 1.026099642E-04,-2.131035110E-04
        GA(  37)=-2.100240609E-04,-9.222650547E-05,-1.451641426E-04
        GA(  40)= 1.168395720E-04,-4.484940256E-05, 2.005461072E-04
        GA(  43)= 3.382681692E-04, 1.065981074E-04, 3.014563749E-04
        GA(  46)=-7.468615205E-05, 3.408976461E-05,-2.338229236E-05
        GA(  49)=-3.874803811E-05, 1.426300735E-05, 1.056479965E-05
        GA(  52)=-4.626528060E-05,-2.226571727E-05, 4.090876561E-05
        GA(  55)= 1.510276036E-04,-1.190980088E-04, 2.805826028E-07
        GA(  58)= 1.125824130E-04,-8.325835623E-05,-2.759296531E-06
 $END   
 A GS2 RESTART ALSO REQUIRES THE UPDATED $HESS GROUP FROM THE PUNCH FILE
 ......DONE WITH THIS PORTION OF THE IRC......
 STEP CPU TIME =     0.02 TOTAL CPU TIME =        138.0 (      2.3 MIN)
 TOTAL WALL CLOCK TIME=        141.1 SECONDS, CPU UTILIZATION IS    97.78%
               580000  WORDS OF DYNAMIC MEMORY USED
 EXECUTION OF GAMESS TERMINATED NORMALLY Sun Nov 14 21:22:40 2021
 DDI: 263640 bytes (0.3 MB / 0 MWords) used by master data server.

 ----------------------------------------
 CPU timing information for all processes
 ========================================
 0: 127.513 + 10.487 = 138.01
 ----------------------------------------
 ddikick.x: exited gracefully.
----- accounting info -----
Files used on the master node chemcompute-node-0.novalocal were:
-rw-r--r--. 1 chemcomp chemcomp    60733 Nov 14 21:20 /scratch/306510/342521.F05
-rw-rw-r--. 1 chemcomp chemcomp 17281536 Nov 14 21:22 /scratch/306510/342521.F08
-rw-rw-r--. 1 chemcomp chemcomp 65536000 Nov 14 21:22 /scratch/306510/342521.F10
Sun Nov 14 21:22:43 UTC 2021
0.128u 0.100s 2:24.69 0.1%	0+0k 120+328io 0pf+0w
Finishing Up...
Looking for IR data...
Looking for Raman data...
vibramans not found
Looking for thermodynamics data...
Looking for UV-Vis data...
306510
