----- GAMESS execution script 'rungms' -----
This job is running on host chemcompute-node-0.novalocal
under operating system Linux at Sun Nov 14 20:37:08 UTC 2021
SLURM has assigned the following compute nodes to this run:
chemcompute-node-0
Available scratch disk space (Kbyte units) at beginning of the job is
Filesystem     1K-blocks     Used Available Use% Mounted on
/dev/sda1       62903276 16851840  46051436  27% /
GAMESS temporary binary files will be written to /scratch/306503
GAMESS supplementary output files will be written to /data/slurm/342514
Copying input file 342514.inp to your run's scratch directory...
The generated host list is
chemcompute-node-0.novalocal

 Distributed Data Interface kickoff program.
 Initiating 1 compute processes on 1 nodes to run the following command:
 /data/gamess-2019R1-ddi/gamess.00.x 342514 

          ******************************************************
          *         GAMESS VERSION = 30 JUN 2019 (R1)          *
          *             FROM IOWA STATE UNIVERSITY             *
          * M.W.SCHMIDT, K.K.BALDRIDGE, J.A.BOATZ, S.T.ELBERT, *
          *   M.S.GORDON, J.H.JENSEN, S.KOSEKI, N.MATSUNAGA,   *
          *          K.A.NGUYEN, S.J.SU, T.L.WINDUS,           *
          *       TOGETHER WITH M.DUPUIS, J.A.MONTGOMERY       *
          *         J.COMPUT.CHEM.  14, 1347-1363(1993)        *
          **************** 64 BIT LINUX VERSION ****************

  SINCE 1993, STUDENTS AND POSTDOCS WORKING AT IOWA STATE UNIVERSITY
  AND ALSO IN THEIR VARIOUS JOBS AFTER LEAVING ISU HAVE MADE IMPORTANT
  CONTRIBUTIONS TO THE CODE:
     IVANA ADAMOVIC, CHRISTINE AIKENS, YURI ALEXEEV, POOJA ARORA,
     ANDREY ASADCHEV, ROB BELL, PRADIPTA BANDYOPADHYAY, JONATHAN BENTZ,
     COLLEEN BERTONI, BRETT BODE, KURT BRORSEN, CALEB CARLIN, GALINA CHABAN,
     WEI CHEN, CHEOL HO CHOI, PAUL DAY, ALBERT DEFUSCO, NUWAN DESILVA,
     TIM DUDLEY, DMITRI FEDOROV, ALEX FINDLATER, GRAHAM FLETCHER, 
     MARK FREITAG, KURT GLAESEMANN, ANASTASIA GUNINA,
     DAN KEMP, GRANT MERRILL, NORIYUKI MINEZAWA, JONATHAN MULLIN,
     TAKESHI NAGATA, SEAN NEDD, HEATHER NETZLOFF, BOSILJKA NJEGIC, RYAN OLSON,
     MIKE PAK, BUU PHAM,
     SPENCER PRUITT, LUKE ROSKOP, JIM SHOEMAKER, LYUDMILA SLIPCHENKO,
     TONY SMITH, SAROM SOK LEANG, JIE SONG, TETSUYA TAKETSUGU, SIMON WEBB,
     PENG XU, SOOHAENG YOO, FEDERICO ZAHARIEV

  ADDITIONAL CODE HAS BEEN PROVIDED BY COLLABORATORS IN OTHER GROUPS:
     IOWA STATE UNIVERSITY:
          JOE IVANIC, AARON WEST, LAIMUTIS BYTAUTAS, KLAUS RUEDENBERG
     UNIVERSITY OF TOKYO: KIMIHIKO HIRAO, TAKAHITO NAKAJIMA,
          TAKAO TSUNEDA, MUNEAKI KAMIYA, SUSUMU YANAGISAWA,
          KIYOSHI YAGI, MAHITO CHIBA, SEIKEN TOKURA, NAOAKI KAWAKAMI
     UNIVERSITY OF AARHUS: FRANK JENSEN
     UNIVERSITY OF IOWA: VISVALDAS KAIRYS, HUI LI
     NATIONAL INST. OF STANDARDS AND TECHNOLOGY: WALT STEVENS, DAVID GARMER
     UNIVERSITY OF PISA: BENEDETTA MENNUCCI, JACOPO TOMASI
     UNIVERSITY OF MEMPHIS: HENRY KURTZ, PRAKASHAN KORAMBATH
     UNIVERSITY OF ALBERTA: TOBY ZENG, MARIUSZ KLOBUKOWSKI
     UNIVERSITY OF NEW ENGLAND: MARK SPACKMAN
     MIE UNIVERSITY: HIROAKI UMEDA
     NAT. INST. OF ADVANCED INDUSTRIAL SCIENCE AND TECHNOLOGY: KAZUO KITAURA
     MICHIGAN STATE UNIVERSITY:
          KAROL KOWALSKI, MARTA WLOCH, JEFFREY GOUR, JESSE LUTZ,
          WEI LI, JUN SHEN, J. EMILIANO DEUSTUA, PIOTR PIECUCH
     UNIVERSITY OF MINNESOTA:
          YINAN SHU
     UNIVERSITY OF SILESIA: MONIKA MUSIAL, STANISLAW KUCHARSKI
     FACULTES UNIVERSITAIRES NOTRE-DAME DE LA PAIX:
          OLIVIER QUINET, BENOIT CHAMPAGNE
     UNIVERSITY OF CALIFORNIA - SANTA BARBARA: BERNARD KIRTMAN
     INSTITUTE FOR MOLECULAR SCIENCE:
          KAZUYA ISHIMURA, MICHIO KATOUDA, AND SHIGERU NAGASE
     UNIVERSITY OF NOTRE DAME: ANNA POMOGAEVA, DAN CHIPMAN
     KYUSHU UNIVERSITY:
          HARUYUKI NAKANO,
          FENG LONG GU, JACEK KORCHOWIEC, MARCIN MAKOWSKI, AND YURIKO AOKI,
          HIROTOSHI MORI AND EISAKU MIYOSHI
     PENNSYLVANIA STATE UNIVERSITY:
          TZVETELIN IORDANOV, CHET SWALINA, JONATHAN SKONE,
          SHARON HAMMES-SCHIFFER
     WASEDA UNIVERSITY:
          MASATO KOBAYASHI, TOMOKO AKAMA, TSUGUKI TOUMA,
          TAKESHI YOSHIKAWA, YASUHIRO IKABATA, JUNJI SEINO,
          YUYA NAKAJIMA, HIROMI NAKAI
     NANJING UNIVERSITY: SHUHUA LI
     UNIVERSITY OF NEBRASKA:
          PEIFENG SU, DEJUN SI, NANDUN THELLAMUREGE, YALI WANG, HUI LI
     UNIVERSITY OF ZURICH: ROBERTO PEVERATI, KIM BALDRIDGE
     N. COPERNICUS UNIVERSITY AND JACKSON STATE UNIVERSITY:
          MARIA BARYSZ
     UNIVERSITY OF COPENHAGEN: Jimmy Kromann, CASPER STEINMANN
     TOKYO INSTITUTE OF TECHNOLOGY: HIROYA NAKATA
     NAGOYA UNIVERSITY: YOSHIO NISHIMOTO, STEPHAN IRLE
     MOSCOW STATE UNIVERSITY: VLADIMIR MIRONOV
     A.N.NESMEYANOV INSTITUTE OF ORGANOELEMENT COMPOUNDS OF RUSSIAN ACADEMY OF SCIENCES:
          IGOR S. GERASIMOV

 EXECUTION OF GAMESS BEGUN Sun Nov 14 20:37:09 2021

            ECHO OF THE FIRST FEW INPUT CARDS -
 INPUT CARD> $BASIS GBASIS=STO NGAUSS=3 $END                                                
 INPUT CARD> $CONTRL SCFTYP=RHF RUNTYP=OPTIMIZE NZVAR=1 mult=1  ICHARG=0 $END               
 INPUT CARD> $STATPT hssend=.t. OPTTOL=0.0005 NSTEP=50 $END                                 
 INPUT CARD> $STATPT HESS=calc ihrep=5 $END                                                 
 INPUT CARD> $FORCE nvib=2 $END                                                             
 INPUT CARD> $ZMAT DLC=.t. auto=.t. nonvdw(1)=4,3,6,1 $END                                  
 INPUT CARD> $ZMAT IFZMAT(1)=1,4,3,1,6,1 fvalue(1)=2.00,2.00 $END                           
 INPUT CARD>                                                                                
 INPUT CARD> $DATA                                                                          
 INPUT CARD>Title                                                                           
 INPUT CARD>C1                                                                              
 INPUT CARD>C     6.0    -3.16623    -0.81384    -0.35031                                   
 INPUT CARD>C     6.0    -3.59750    -0.16716     0.76262                                   
 INPUT CARD>C     6.0    -2.92840     1.10964     1.19335                                   
 INPUT CARD>C     6.0    -0.98191     0.67529     1.31929                                   
 INPUT CARD>C     6.0    -0.94308    -0.81348     1.11206                                   
 INPUT CARD>C     6.0    -1.22201    -1.24879    -0.14714                                   
 INPUT CARD>C     6.0    -0.53065    -0.50986    -1.23090                                   
 INPUT CARD>C     6.0    -0.11393     0.75807    -1.10078                                   
 INPUT CARD>C     6.0    -0.34936     1.46275     0.18574                                   
 INPUT CARD>O     8.0    -0.06928     2.65582     0.28361                                   
 INPUT CARD>H     1.0    -2.89532    -0.17609    -1.19899                                   
 INPUT CARD>H     1.0    -3.61039    -1.78457    -0.58445                                   
 INPUT CARD>H     1.0    -4.17672    -0.70490     1.50899                                   
 INPUT CARD>H     1.0    -3.18708     1.39660     2.21609                                   
 INPUT CARD>H     1.0    -3.01086     1.94011     0.48816                                   
 INPUT CARD>H     1.0    -0.65761     1.01537     2.30513                                   
 INPUT CARD>H     1.0    -1.10573    -1.46131     1.96779                                   
 INPUT CARD>H     1.0    -1.33378    -2.32658    -0.31136                                   
 INPUT CARD>H     1.0    -0.36019    -1.05272    -2.15693                                   
 INPUT CARD>H     1.0     0.38644     1.30597    -1.88749                                   
 INPUT CARD> $END                                                                           
    1000000 WORDS OF MEMORY AVAILABLE

     BASIS OPTIONS
     -------------
     GBASIS=STO          IGAUSS=       3      POLAR=NONE    
     NDFUNC=       0     NFFUNC=       0     DIFFSP=       F
     NPFUNC=       0      DIFFS=       F     BASNAM=        


     RUN TITLE
     ---------
 Title                                                                           

 THE POINT GROUP OF THE MOLECULE IS C1      
 THE ORDER OF THE PRINCIPAL AXIS IS     0

 ATOM      ATOMIC                      COORDINATES (BOHR)
           CHARGE         X                   Y                   Z
 C           6.0    -5.9833071141       -1.5379345978       -0.6619899108
 C           6.0    -6.7982892408       -0.3158865961        1.4411428328
 C           6.0    -5.5338735824        2.0969155450        2.2551045074
 C           6.0    -1.8555408446        1.2761130622        2.4930965983
 C           6.0    -1.7821627845       -1.5372542965        2.1014886819
 C           6.0    -2.3092640543       -2.3598709162       -0.2780542818
 C           6.0    -1.0027830954       -0.9634956921       -2.3260637183
 C           6.0    -0.2152964818        1.4325445795       -2.0801725728
 C           6.0    -0.6601946711        2.7641966885        0.3509977050
 O           8.0    -0.1309202164        5.0187720727        0.5359451874
 H           1.0    -5.4713614468       -0.3327618492       -2.2657625620
 H           1.0    -6.8226478088       -3.3723483059       -1.1044503535
 H           1.0    -7.8928563274       -1.3320678487        2.8515776182
 H           1.0    -6.0227079009        2.6391913145        4.1878028641
 H           1.0    -5.6897003874        3.6662762860        0.9224886382
 H           1.0    -1.2427027068        1.9187710762        4.3560640661
 H           1.0    -2.0895267164       -2.7614754831        3.7185839014
 H           1.0    -2.5204787279       -4.3965986885       -0.5883850835
 H           1.0    -0.6806604035       -1.9893523418       -4.0760066747
 H           1.0     0.7302657107        2.4679254482       -3.5668389046

          INTERNUCLEAR DISTANCES (ANGS.)
          ------------------------------

                1 C          2 C          3 C          4 C          5 C     

   1 C       0.0000000    1.3574984 *  2.4777459 *  3.1267117    2.6610002 *
   2 C       1.3574984 *  0.0000000    1.5044738 *  2.8037323 *  2.7542301 *
   3 C       2.4777459 *  1.5044738 *  0.0000000    1.9983353 *  2.7652295 *
   4 C       3.1267117    2.8037323 *  1.9983353 *  0.0000000    1.5036250 *
   5 C       2.6610002 *  2.7542301 *  2.7652295 *  1.5036250 *  0.0000000  
   6 C       2.0026110 *  2.7641526 *  3.2048202    2.4310798 *  1.3612059 *
   7 C       2.7953756 *  3.6738446    3.7747812    2.8481020 *  2.3982796 *
   8 C       3.5143480    4.0575325    3.6479961    2.5723492 *  2.8379429 *
   9 C       3.6612796    3.6796482    2.7913101 *  1.5182715 *  2.5282000 *
  10 O       4.6937719    4.5438973    3.3753321    2.4141304 *  3.6723151  
  11 H       1.0956163 *  2.0835187 *  2.7161529 *  3.2753198    3.0916758  
  12 H       1.0928936 *  2.1049415 *  3.4644097    4.0723512    3.3069177  
  13 H       2.1189513 *  1.0870733 *  2.2249690 *  3.4853582    3.2597194  
  14 H       3.3871653    2.1740205 *  1.0932788 *  2.4874310 *  3.3374948  
  15 H       2.8829520 *  2.2045547 *  1.0925992 *  2.5312418 *  3.4996033  
  16 H       4.0854064    3.5242967    2.5301045 *  1.0921105 *  2.2021811 *
  17 H       3.1683537    3.0555158    3.2452530    2.2362789 *  1.0855471 *
  18 H       2.3765042 *  3.3077116    4.0760978    3.4342474    2.1138218 *
  19 H       3.3458631    4.4483890    4.7429821    3.9314959    3.3291579  
  20 H       4.4133866    5.0064931    4.5297113    3.5431027    3.9060200  

                6 C          7 C          8 C          9 C         10 O     

   1 C       2.0026110 *  2.7953756 *  3.5143480    3.6612796    4.6937719  
   2 C       2.7641526 *  3.6738446    4.0575325    3.6796482    4.5438973  
   3 C       3.2048202    3.7747812    3.6479961    2.7913101 *  3.3753321  
   4 C       2.4310798 *  2.8481020 *  2.5723492 *  1.5182715 *  2.4141304 *
   5 C       1.3612059 *  2.3982796 *  2.8379429 *  2.5282000 *  3.6723151  
   6 C       0.0000000    1.4827447 *  2.4828930 *  2.8678871 *  4.0939359  
   7 C       1.4827447 *  0.0000000    1.3409822 *  2.4353491 *  3.5395102  
   8 C       2.4828930 *  1.3409822 *  0.0000000    1.4856429 *  2.3494647 *
   9 C       2.8678871 *  2.4353491 *  1.4856429 *  0.0000000    1.2294061 *
  10 O       4.0939359    3.5395102    2.3494647 *  1.2294061 *  0.0000000  
  11 H       2.2487864 *  2.3883226 *  2.9357163 *  3.3294423    4.2666520  
  12 H       2.4864954 *  3.3952292    4.3539462    4.6661115    5.7454375  
  13 H       3.4305822    4.5649605    5.0455370    4.5932975    5.4467475  
  14 H       4.0551750    4.7510999    4.5665740    3.4898928    3.8782458  
  15 H       3.7111553    3.8870248    3.5091526    2.7208294 *  3.0342997  
  16 H       3.3850548    3.8530447    3.4586145    2.1879170 *  2.6690357 *
  17 H       2.1287590 *  3.3863833    3.9147716    3.5068397    4.5674337  
  18 H       1.0959434 *  2.1888452 *  3.4097337    3.9465444    5.1746748  
  19 H       2.1955485 *  1.0868694 *  2.1107007 *  3.4374132    4.4490598  
  20 H       3.4846418    2.1376162 *  1.0814237 *  2.2055077 *  2.5968155 *

               11 H         12 H         13 H         14 H         15 H     

   1 C       1.0956163 *  1.0928936 *  2.1189513 *  3.3871653    2.8829520 *
   2 C       2.0835187 *  2.1049415 *  1.0870733 *  2.1740205 *  2.2045547 *
   3 C       2.7161529 *  3.4644097    2.2249690 *  1.0932788 *  1.0925992 *
   4 C       3.2753198    4.0723512    3.4853582    2.4874310 *  2.5312418 *
   5 C       3.0916758    3.3069177    3.2597194    3.3374948    3.4996033  
   6 C       2.2487864 *  2.4864954 *  3.4305822    4.0551750    3.7111553  
   7 C       2.3883226 *  3.3952292    4.5649605    4.7510999    3.8870248  
   8 C       2.9357163 *  4.3539462    5.0455370    4.5665740    3.5091526  
   9 C       3.3294423    4.6661115    4.5932975    3.4898928    2.7208294 *
  10 O       4.2666520    5.7454375    5.4467475    3.8782458    3.0342997  
  11 H       0.0000000    1.8644550 *  3.0421673    3.7711072    2.7088978 *
  12 H       1.8644550 *  0.0000000    2.4225829 *  4.2593495    3.9221384  
  13 H       3.0421673    2.4225829 *  0.0000000    2.4281021 *  3.0655181  
  14 H       3.7711072    4.2593495    2.4281021 *  0.0000000    1.8199447 *
  15 H       2.7088978 *  3.9221384    3.0655181    1.8199447 *  0.0000000  
  16 H       4.3250179    4.9908162    3.9971619    2.5595865 *  3.1135686  
  17 H       3.8578386    3.5905080    3.1958775    3.5441953    4.1699500  
  18 H       2.8019460 *  2.3561210 *  3.7451072    4.8667025    4.6536516  
  19 H       2.8483352 *  3.6840328    5.3033809    5.7544574    4.7937025  
  20 H       3.6661264    5.2176624    6.0334156    5.4422080    4.1937446  

               16 H         17 H         18 H         19 H         20 H     

   1 C       4.0854064    3.1683537    2.3765042 *  3.3458631    4.4133866  
   2 C       3.5242967    3.0555158    3.3077116    4.4483890    5.0064931  
   3 C       2.5301045 *  3.2452530    4.0760978    4.7429821    4.5297113  
   4 C       1.0921105 *  2.2362789 *  3.4342474    3.9314959    3.5431027  
   5 C       2.2021811 *  1.0855471 *  2.1138218 *  3.3291579    3.9060200  
   6 C       3.3850548    2.1287590 *  1.0959434 *  2.1955485 *  3.4846418  
   7 C       3.8530447    3.3863833    2.1888452 *  1.0868694 *  2.1376162 *
   8 C       3.4586145    3.9147716    3.4097337    2.1107007 *  1.0814237 *
   9 C       2.1879170 *  3.5068397    3.9465444    3.4374132    2.2055077 *
  10 O       2.6690357 *  4.5674337    5.1746748    4.4490598    2.5968155 *
  11 H       4.3250179    3.8578386    2.8019460 *  2.8483352 *  3.6661264  
  12 H       4.9908162    3.5905080    2.3561210 *  3.6840328    5.2176624  
  13 H       3.9971619    3.1958775    3.7451072    5.3033809    6.0334156  
  14 H       2.5595865 *  3.5441953    4.8667025    5.7544574    5.4422080  
  15 H       3.1135686    4.1699500    4.6536516    4.7937025    4.1937446  
  16 H       0.0000000    2.5394003 *  4.2978897    4.9270107    4.3304216  
  17 H       2.5394003 *  0.0000000    2.4485146 *  4.2114238    4.9746953  
  18 H       4.2978897    2.4485146 *  0.0000000    2.4447342 *  4.3172633  
  19 H       4.9270107    4.2114238    2.4447342 *  0.0000000    2.4886689 *
  20 H       4.3304216    4.9746953    4.3172633    2.4886689 *  0.0000000  

  * ... LESS THAN  3.000


     ATOMIC BASIS SET
     ----------------
 THE CONTRACTED PRIMITIVE FUNCTIONS HAVE BEEN UNNORMALIZED
 THE CONTRACTED BASIS FUNCTIONS ARE NOW NORMALIZED TO UNITY

  SHELL TYPE  PRIMITIVE        EXPONENT          CONTRACTION COEFFICIENT(S)

 C         

      1   S       1            71.6168373    0.154328967295
      1   S       2            13.0450963    0.535328142282
      1   S       3             3.5305122    0.444634542185

      2   L       4             2.9412494   -0.099967229187    0.155916274999
      2   L       5             0.6834831    0.399512826089    0.607683718598
      2   L       6             0.2222899    0.700115468880    0.391957393099

 C         

      3   S       7            71.6168373    0.154328967295
      3   S       8            13.0450963    0.535328142282
      3   S       9             3.5305122    0.444634542185

      4   L      10             2.9412494   -0.099967229187    0.155916274999
      4   L      11             0.6834831    0.399512826089    0.607683718598
      4   L      12             0.2222899    0.700115468880    0.391957393099

 C         

      5   S      13            71.6168373    0.154328967295
      5   S      14            13.0450963    0.535328142282
      5   S      15             3.5305122    0.444634542185

      6   L      16             2.9412494   -0.099967229187    0.155916274999
      6   L      17             0.6834831    0.399512826089    0.607683718598
      6   L      18             0.2222899    0.700115468880    0.391957393099

 C         

      7   S      19            71.6168373    0.154328967295
      7   S      20            13.0450963    0.535328142282
      7   S      21             3.5305122    0.444634542185

      8   L      22             2.9412494   -0.099967229187    0.155916274999
      8   L      23             0.6834831    0.399512826089    0.607683718598
      8   L      24             0.2222899    0.700115468880    0.391957393099

 C         

      9   S      25            71.6168373    0.154328967295
      9   S      26            13.0450963    0.535328142282
      9   S      27             3.5305122    0.444634542185

     10   L      28             2.9412494   -0.099967229187    0.155916274999
     10   L      29             0.6834831    0.399512826089    0.607683718598
     10   L      30             0.2222899    0.700115468880    0.391957393099

 C         

     11   S      31            71.6168373    0.154328967295
     11   S      32            13.0450963    0.535328142282
     11   S      33             3.5305122    0.444634542185

     12   L      34             2.9412494   -0.099967229187    0.155916274999
     12   L      35             0.6834831    0.399512826089    0.607683718598
     12   L      36             0.2222899    0.700115468880    0.391957393099

 C         

     13   S      37            71.6168373    0.154328967295
     13   S      38            13.0450963    0.535328142282
     13   S      39             3.5305122    0.444634542185

     14   L      40             2.9412494   -0.099967229187    0.155916274999
     14   L      41             0.6834831    0.399512826089    0.607683718598
     14   L      42             0.2222899    0.700115468880    0.391957393099

 C         

     15   S      43            71.6168373    0.154328967295
     15   S      44            13.0450963    0.535328142282
     15   S      45             3.5305122    0.444634542185

     16   L      46             2.9412494   -0.099967229187    0.155916274999
     16   L      47             0.6834831    0.399512826089    0.607683718598
     16   L      48             0.2222899    0.700115468880    0.391957393099

 C         

     17   S      49            71.6168373    0.154328967295
     17   S      50            13.0450963    0.535328142282
     17   S      51             3.5305122    0.444634542185

     18   L      52             2.9412494   -0.099967229187    0.155916274999
     18   L      53             0.6834831    0.399512826089    0.607683718598
     18   L      54             0.2222899    0.700115468880    0.391957393099

 O         

     19   S      55           130.7093214    0.154328967295
     19   S      56            23.8088661    0.535328142282
     19   S      57             6.4436083    0.444634542185

     20   L      58             5.0331513   -0.099967229187    0.155916274999
     20   L      59             1.1695961    0.399512826089    0.607683718598
     20   L      60             0.3803890    0.700115468880    0.391957393099

 H         

     21   S      61             3.4252509    0.154328967295
     21   S      62             0.6239137    0.535328142282
     21   S      63             0.1688554    0.444634542185

 H         

     22   S      64             3.4252509    0.154328967295
     22   S      65             0.6239137    0.535328142282
     22   S      66             0.1688554    0.444634542185

 H         

     23   S      67             3.4252509    0.154328967295
     23   S      68             0.6239137    0.535328142282
     23   S      69             0.1688554    0.444634542185

 H         

     24   S      70             3.4252509    0.154328967295
     24   S      71             0.6239137    0.535328142282
     24   S      72             0.1688554    0.444634542185

 H         

     25   S      73             3.4252509    0.154328967295
     25   S      74             0.6239137    0.535328142282
     25   S      75             0.1688554    0.444634542185

 H         

     26   S      76             3.4252509    0.154328967295
     26   S      77             0.6239137    0.535328142282
     26   S      78             0.1688554    0.444634542185

 H         

     27   S      79             3.4252509    0.154328967295
     27   S      80             0.6239137    0.535328142282
     27   S      81             0.1688554    0.444634542185

 H         

     28   S      82             3.4252509    0.154328967295
     28   S      83             0.6239137    0.535328142282
     28   S      84             0.1688554    0.444634542185

 H         

     29   S      85             3.4252509    0.154328967295
     29   S      86             0.6239137    0.535328142282
     29   S      87             0.1688554    0.444634542185

 H         

     30   S      88             3.4252509    0.154328967295
     30   S      89             0.6239137    0.535328142282
     30   S      90             0.1688554    0.444634542185

 TOTAL NUMBER OF BASIS SET SHELLS             =   30
 NUMBER OF CARTESIAN GAUSSIAN BASIS FUNCTIONS =   60
 NUMBER OF ELECTRONS                          =   72
 CHARGE OF MOLECULE                           =    0
 SPIN MULTIPLICITY                            =    1
 NUMBER OF OCCUPIED ORBITALS (ALPHA)          =   36
 NUMBER OF OCCUPIED ORBITALS (BETA )          =   36
 TOTAL NUMBER OF ATOMS                        =   20
 THE NUCLEAR REPULSION ENERGY IS      505.3253372212

     $CONTRL OPTIONS
     ---------------
 SCFTYP=RHF          RUNTYP=OPTIMIZE     EXETYP=RUN     
 MPLEVL=       0     CITYP =NONE         CCTYP =NONE         VBTYP =NONE    
 DFTTYP=NONE         TDDFT =NONE    
 MULT  =       1     ICHARG=       0     NZVAR =       1     COORD =UNIQUE  
 PP    =NONE         RELWFN=NONE         LOCAL =NONE         NUMGRD=       F
 ISPHER=      -1     NOSYM =       0     MAXIT =      30     UNITS =ANGS    
 PLTORB=       F     MOLPLT=       F     AIMPAC=       F     FRIEND=        
 NPRINT=       7     IREST =       0     GEOM  =INPUT   
 NORMF =       0     NORMP =       0     ITOL  =      20     ICUT  =       9
 INTTYP=BEST         GRDTYP=BEST         QMTTOL= 1.0E-06

     $SYSTEM OPTIONS
     ---------------
  REPLICATED MEMORY=     1000000 WORDS (ON EVERY NODE).
 DISTRIBUTED MEMDDI=           0 MILLION WORDS IN AGGREGATE,
 MEMDDI DISTRIBUTED OVER   1 PROCESSORS IS           0 WORDS/PROCESSOR.
 TOTAL MEMORY REQUESTED ON EACH PROCESSOR=     1000000 WORDS.
 TIMLIM=      525600.00 MINUTES, OR     365.0 DAYS.
 PARALL= F  BALTYP=  DLB     KDIAG=    0  COREFL= F
 MXSEQ2=     300 MXSEQ3=     150  mem10=         0

          ----------------
          PROPERTIES INPUT
          ----------------

     MOMENTS            FIELD           POTENTIAL          DENSITY
 IEMOM =       1   IEFLD =       0   IEPOT =       0   IEDEN =       0
 WHERE =COMASS     WHERE =NUCLEI     WHERE =NUCLEI     WHERE =NUCLEI  
 OUTPUT=BOTH       OUTPUT=BOTH       OUTPUT=BOTH       OUTPUT=BOTH    
 IEMINT=       0   IEFINT=       0                     IEDINT=       0
                                                       MORB  =       0
          EXTRAPOLATION IN EFFECT
          SOSCF IN EFFECT
 ORBITAL PRINTING OPTION: NPREO=     1    60     2     1

     -------------------------------
     INTEGRAL TRANSFORMATION OPTIONS
     -------------------------------
     NWORD  =            0
     CUTOFF = 1.0E-09     MPTRAN =       0
     DIRTRF =       F     AOINTS =DUP     

          ----------------------
          INTEGRAL INPUT OPTIONS
          ----------------------
 NOPK  =       1 NORDER=       0 SCHWRZ=       T


 -----------------------------------------------
  STATISTICS ON AUTOMATIC COORDINATE GENERATION 
 -----------------------------------------------
  NUMBER OF USER SPECIFIED BONDS                             2
  NUMBER OF BONDS                                           21
  NUMBER OF ANGLES                                          39
  NUMBER OF TORSIONS                                        62
  NUMBER OF EXTRA COORD.                                     0
  NUMBER OF EXTRA COORD. FOR CONSTRAINTS                     0
  NUMBER OF CONSTRAINED COORD.                               2

  TOTAL NUMBER OF PRIMITIVES                               122
 -----------------------------------------------

   --- ENCODED Z MATRIX ---
 COORD  TYPE   I   J   K   L   M   N
    1      1    1   6
    2      1    3   4
    3      1    1   2
    4      1    1  12
    5      1    1  11
    6      1    2  13
    7      1    2   3
    8      1    3  14
    9      1    3  15
   10      1    4   9
   11      1    4   5
   12      1    4  16
   13      1    5   6
   14      1    5  17
   15      1    6   7
   16      1    6  18
   17      1    7   8
   18      1    7  19
   19      1    8  20
   20      1    8   9
   21      1    9  10
   22      2    1   2  13
   23      2    1   6   7
   24      2    1   6   5
   25      2    1   6  18
   26      2    1   2   3
   27      2    2   1  12
   28      2    2   3   4
   29      2    2   3  15
   30      2    2   1   6
   31      2    2   1  11
   32      2    2   3  14
   33      2    3   2  13
   34      2    3   4  16
   35      2    3   4   5
   36      2    3   4   9
   37      2    4   5  17
   38      2    4   5   6
   39      2    4   9  10
   40      2    4   9   8
   41      2    4   3  15
   42      2    4   3  14
   43      2    5   6   7
   44      2    5   4  16
   45      2    5   4   9
   46      2    5   6  18
   47      2    6   5  17
   48      2    6   1  12
   49      2    6   1  11
   50      2    6   7  19
   51      2    6   7   8
   52      2    7   8  20
   53      2    7   8   9
   54      2    7   6  18
   55      2    8   9  10
   56      2    8   7  19
   57      2    9   4  16
   58      2    9   8  20
   59      2   11   1  12
   60      2   14   3  15
   61      3    1   6   7   8
   62      3    1   6   5  17
   63      3    1   6   5   4
   64      3    1   2   3  15
   65      3    1   2   3   4
   66      3    1   2   3  14
   67      3    1   6   7  19
   68      3    2   1   6  18
   69      3    2   3   4   9
   70      3    2   3   4  16
   71      3    2   1   6   5
   72      3    2   1   6   7
   73      3    2   3   4   5
   74      3    3   4   9  10
   75      3    3   4   9   8
   76      3    3   4   5  17
   77      3    3   4   5   6
   78      3    3   2   1   6
   79      3    3   2   1  11
   80      3    3   2   1  12
   81      3    4   3   2  13
   82      3    4   9   8  20
   83      3    4   9   8   7
   84      3    4   5   6  18
   85      3    4   5   6   7
   86      3    5   4   3  15
   87      3    5   4   3  14
   88      3    5   6   1  11
   89      3    5   6   7  19
   90      3    5   6   7   8
   91      3    5   6   1  12
   92      3    5   4   9   8
   93      3    5   4   9  10
   94      3    6   5   4  16
   95      3    6   5   4   9
   96      3    6   7   8   9
   97      3    6   7   8  20
   98      3    6   1   2  13
   99      3    7   8   9  10
  100      3    7   6   1  11
  101      3    7   6   1  12
  102      3    7   6   5  17
  103      3    8   7   6  18
  104      3    8   9   4  16
  105      3    9   4   5  17
  106      3    9   8   7  19
  107      3    9   4   3  15
  108      3    9   4   3  14
  109      3   10   9   8  20
  110      3   10   9   4  16
  111      3   11   1   2  13
  112      3   11   1   6  18
  113      3   12   1   6  18
  114      3   12   1   2  13
  115      3   13   2   3  15
  116      3   13   2   3  14
  117      3   14   3   4  16
  118      3   15   3   4  16
  119      3   16   4   5  17
  120      3   17   5   6  18
  121      3   18   6   7  19
  122      3   19   7   8  20

          INDEP./SYM. INTERNAL COORDINATES
          --------------------------------
 CRD  1=   1.0000 (  1)
 CRD  2=   1.0000 (  2)
 CRD  3=   0.1198 (  4) -0.1208 (  8) -0.2834 ( 10)  0.2868 ( 15)  0.2388 ( 17)
          -0.1619 ( 20)  0.1197 ( 24) -0.1362 ( 25)  0.1454 ( 28) -0.1243 ( 30)
           0.1438 ( 34) -0.1328 ( 35) -0.1464 ( 39) -0.1321 ( 42) -0.1570 ( 43)
           0.1627 ( 45)  0.1519 ( 48)  0.1012 ( 50)  0.1781 ( 52)  0.1509 ( 54)
           0.1358 ( 55) -0.1457 ( 57) -0.1817 ( 58) -0.1120 ( 62) -0.1107 ( 63)
           0.1834 ( 69)  0.1626 ( 72) -0.1131 ( 76) -0.1077 ( 77) -0.1043 ( 78)
           0.1324 (100)  0.1283 (101)  0.1156 (107)  0.1340 (108)
 CRD  4=  -0.1971 (  3)  0.1176 (  6) -0.1618 (  7)  0.1581 ( 10)  0.1172 ( 15)
          -0.1850 ( 17) -0.2377 ( 20)  0.1587 ( 22) -0.3490 ( 26)  0.2474 ( 28)
           0.2173 ( 30) -0.1066 ( 32)  0.1895 ( 33)  0.1250 ( 37) -0.2224 ( 38)
           0.1401 ( 39) -0.1341 ( 41) -0.1247 ( 49)  0.1330 ( 51) -0.2100 ( 55)
          -0.1612 ( 56) -0.1055 ( 98) -0.1130 (100)
 CRD  5=   0.2112 (  3) -0.1645 (  7) -0.1160 (  9) -0.1269 ( 11)  0.1471 ( 13)
          -0.1039 ( 17)  0.1197 ( 25) -0.1257 ( 27)  0.1145 ( 32) -0.1067 ( 34)
          -0.1081 ( 41) -0.1431 ( 42)  0.1142 ( 47)  0.1960 ( 48)  0.1191 ( 49)
          -0.1789 ( 61)  0.1327 ( 66) -0.1449 ( 67) -0.1551 ( 74) -0.1929 ( 75)
           0.1749 ( 80)  0.1309 ( 82)  0.1420 ( 83)  0.1111 ( 85) -0.1787 ( 89)
          -0.2127 ( 90) -0.2055 ( 92) -0.1677 ( 93)  0.1073 ( 97)  0.1072 ( 99)
           0.1766 (114)  0.1605 (116) -0.1050 (119) -0.1101 (120)
 CRD  6=  -0.2988 (  3) -0.1439 (  4) -0.3288 (  7) -0.1510 (  8) -0.2902 ( 10)
          -0.1144 ( 11) -0.1057 ( 12) -0.1304 ( 13) -0.2608 ( 15) -0.1272 ( 17)
          -0.1935 ( 39)  0.1535 ( 41) -0.1739 ( 42) -0.1710 ( 48)  0.1678 ( 49)
          -0.1325 ( 50)  0.1737 ( 55)  0.1010 ( 56) -0.1820 ( 65)  0.1798 ( 78)
          -0.1765 ( 81)  0.1838 ( 98)
 CRD  7=   0.1174 (  3)  0.1191 ( 11) -0.1884 ( 17) -0.2023 ( 19) -0.4333 ( 20)
           0.1375 ( 27)  0.1166 ( 32)  0.3824 ( 39) -0.1301 ( 42) -0.1047 ( 48)
           0.1124 ( 49)  0.1616 ( 50)  0.1825 ( 53) -0.3602 ( 55) -0.1261 ( 56)
          -0.2602 ( 58) -0.1072 ( 65)  0.1017 ( 98)
 CRD  8=   0.1314 ( 10)  0.2463 ( 11) -0.3124 ( 13) -0.2282 ( 15)  0.1383 ( 17)
          -0.1320 ( 18)  0.1893 ( 21)  0.1577 ( 22) -0.1448 ( 33)  0.3221 ( 37)
           0.1102 ( 39) -0.1739 ( 40) -0.1082 ( 41) -0.3471 ( 47) -0.2756 ( 50)
           0.1424 ( 51)  0.1331 ( 56)  0.1144 ( 69) -0.1174 ( 89) -0.1068 ( 90)
           0.1354 (102)
 CRD  9=   0.1437 (  3)  0.1754 (  7)  0.1113 (  9) -0.3073 ( 10)  0.1218 ( 13)
          -0.2950 ( 15) -0.2332 ( 17) -0.2138 ( 19)  0.1197 ( 24) -0.1066 ( 29)
           0.1367 ( 34)  0.1226 ( 41)  0.1014 ( 42)  0.1075 ( 49) -0.1386 ( 52)
           0.1222 ( 53)  0.1290 ( 55)  0.1497 ( 62)  0.1305 ( 63) -0.1214 ( 66)
          -0.1818 ( 76) -0.1518 ( 77) -0.1054 ( 79)  0.1258 ( 85)  0.1291 ( 93)
          -0.1532 ( 95)  0.1451 (102) -0.1833 (105) -0.1337 (111)  0.1219 (115)
 CRD 10=  -0.1011 (  3) -0.1127 (  7)  0.3320 ( 17)  0.1247 ( 18) -0.1861 ( 20)
          -0.1272 ( 27) -0.2444 ( 50) -0.1242 ( 51)  0.4043 ( 52) -0.1713 ( 55)
           0.3685 ( 56) -0.4039 ( 58)  0.1058 ( 63)
 CRD 11=   0.1694 (  6)  0.4736 (  7)  0.1990 ( 11)  0.1094 ( 14)  0.1008 ( 17)
           0.1204 ( 19) -0.2295 ( 22) -0.1316 ( 26)  0.2179 ( 32)  0.3579 ( 33)
           0.1227 ( 37) -0.1645 ( 39) -0.1793 ( 42) -0.1667 ( 50)  0.1154 ( 52)
          -0.1260 ( 53)  0.1290 ( 66)  0.1367 ( 87)  0.1784 (108)
 CRD 12=   0.2382 (  3)  0.1201 (  5) -0.1233 (  7)  0.1822 ( 10)  0.2114 ( 11)
           0.1190 ( 12)  0.2894 ( 13)  0.2979 ( 14)  0.1061 ( 15)  0.1630 ( 17)
           0.1852 ( 19)  0.1021 ( 20)  0.2180 ( 22)  0.1679 ( 27) -0.1525 ( 29)
          -0.1170 ( 30) -0.2416 ( 33) -0.1613 ( 38)  0.2039 ( 41)  0.1164 ( 47)
          -0.1074 ( 48)  0.2104 ( 49) -0.1447 ( 50) -0.1175 ( 53) -0.1336 ( 65)
          -0.1055 ( 66)  0.1221 ( 78)  0.1404 ( 98)  0.1044 (115)
 CRD 13=   0.4022 (  3)  0.2104 (  6) -0.1050 (  9) -0.2008 ( 11) -0.1485 ( 14)
          -0.1793 ( 15)  0.3032 ( 22) -0.1582 ( 26)  0.1492 ( 27) -0.1586 ( 33)
          -0.1506 ( 37) -0.1803 ( 41)  0.1101 ( 46)  0.1108 ( 47) -0.1564 ( 48)
          -0.1722 ( 49) -0.1741 ( 50)  0.1349 ( 56) -0.1916 ( 80)  0.1041 ( 81)
          -0.1357 ( 91) -0.1367 (101)  0.1360 (111) -0.1161 (114)
 CRD 14=  -0.3107 ( 11) -0.1364 ( 12) -0.2947 ( 13) -0.1737 ( 16) -0.1249 ( 17)
          -0.2234 ( 18)  0.2138 ( 19) -0.1535 ( 20) -0.2224 ( 21)  0.1329 ( 24)
          -0.1191 ( 28) -0.1193 ( 30)  0.1286 ( 35)  0.1585 ( 40) -0.1504 ( 44)
          -0.1517 ( 46)  0.1152 ( 49)  0.1657 ( 51)  0.1499 ( 52) -0.3055 ( 53)
          -0.1231 ( 55)  0.1557 ( 58)
 CRD 15=  -0.1456 (  3) -0.1183 (  5)  0.1232 (  7) -0.1370 (  8)  0.1333 ( 10)
          -0.1781 ( 11)  0.2015 ( 12)  0.2095 ( 13) -0.1477 ( 15) -0.1562 ( 16)
           0.1062 ( 20)  0.1990 ( 29) -0.1809 ( 31)  0.1077 ( 39) -0.1416 ( 41)
           0.1745 ( 49) -0.1151 ( 50) -0.1497 ( 54) -0.1434 ( 55)  0.1722 ( 56)
           0.1572 ( 57) -0.1876 ( 64) -0.1053 ( 65)  0.1348 ( 68)  0.1538 ( 70)
           0.1025 ( 71)  0.1371 ( 73) -0.1063 ( 76) -0.2136 ( 79) -0.1024 ( 81)
          -0.1220 (100) -0.1227 (107) -0.2097 (111) -0.1847 (115) -0.1105 (119)
 CRD 16=   0.1153 (  9) -0.3247 ( 12)  0.2850 ( 16) -0.1316 ( 18)  0.2347 ( 21)
           0.1563 ( 29) -0.1459 ( 31) -0.1003 ( 32) -0.2299 ( 37) -0.1711 ( 40)
           0.1294 ( 42) -0.1031 ( 43) -0.1766 ( 44)  0.1558 ( 45)  0.1049 ( 46)
           0.2608 ( 47) -0.1388 ( 48)  0.1064 ( 51) -0.1277 ( 61) -0.1063 ( 67)
           0.1403 ( 69)  0.1055 ( 72) -0.1468 ( 75) -0.1640 ( 86) -0.1428 ( 87)
          -0.1433 ( 88) -0.1403 (104) -0.1137 (105)
 CRD 17=   0.1064 (  3) -0.1293 (  4)  0.1765 (  5)  0.3435 (  6) -0.1192 (  8)
           0.1157 (  9) -0.1300 ( 13) -0.1692 ( 16)  0.3011 ( 18) -0.1646 ( 19)
           0.2283 ( 21) -0.1520 ( 26) -0.1154 ( 40) -0.1004 ( 42)  0.1068 ( 43)
          -0.1274 ( 46)  0.1141 ( 49)  0.1007 ( 50) -0.1439 ( 51)  0.1202 ( 53)
           0.1103 ( 64) -0.1718 ( 68)  0.1176 ( 69)  0.1161 ( 70) -0.1712 ( 72)
          -0.1265 ( 79) -0.1092 ( 83) -0.1155 ( 99)  0.1058 (106)
 CRD 18=   0.1341 (  8)  0.1370 ( 12)  0.1035 ( 15) -0.1228 ( 16)  0.1436 ( 18)
          -0.1391 ( 25)  0.1389 ( 27) -0.1188 ( 32)  0.1019 ( 34) -0.1548 ( 41)
           0.2169 ( 42) -0.2130 ( 48)  0.1511 ( 49) -0.1145 ( 64) -0.2007 ( 66)
          -0.1354 ( 79) -0.2227 ( 80)  0.1103 ( 83)  0.1424 ( 84) -0.1241 ( 90)
          -0.1413 ( 92) -0.1157 ( 93) -0.1468 (103) -0.1632 (104) -0.1376 (110)
          -0.1233 (111) -0.2105 (114) -0.1295 (115) -0.2157 (116) -0.1064 (117)
           0.1166 (119)  0.1472 (120) -0.1224 (121)
 CRD 19=  -0.1257 (  4)  0.1544 (  6)  0.3824 ( 12) -0.3434 ( 14)  0.4504 ( 16)
          -0.1692 ( 18)  0.1422 ( 19) -0.1522 ( 21)  0.1547 ( 38) -0.1208 ( 61)
          -0.1211 ( 71) -0.1260 ( 88)  0.1283 ( 96)  0.1156 ( 97)  0.1025 (106)
 CRD 20=  -0.1544 (  5) -0.1519 (  8)  0.2999 (  9)  0.2765 ( 12) -0.1790 ( 16)
          -0.1301 ( 25)  0.1163 ( 34) -0.1140 ( 36)  0.2334 ( 41) -0.1060 ( 44)
          -0.2056 ( 49)  0.2075 ( 64)  0.1174 ( 70) -0.1192 ( 75)  0.1809 ( 79)
           0.1160 ( 82)  0.1260 ( 83)  0.1189 ( 84) -0.1141 ( 90) -0.1430 ( 92)
          -0.1131 ( 93) -0.1744 (103) -0.2204 (104) -0.1905 (110)  0.1951 (111)
           0.1935 (115) -0.1477 (121)
 CRD 21=  -0.2269 (  4)  0.3429 (  5)  0.3045 (  6) -0.1966 (  8)  0.1819 (  9)
           0.1281 ( 16) -0.1076 ( 27)  0.1399 ( 29)  0.1461 ( 31) -0.1111 ( 34)
           0.1303 ( 63) -0.1056 ( 68) -0.1242 ( 77)  0.1266 ( 83)  0.1830 ( 84)
           0.1178 ( 85)  0.1085 ( 88) -0.2149 ( 94) -0.1509 ( 95) -0.1725 ( 96)
          -0.1401 ( 97)  0.1335 ( 99)  0.1304 (100)  0.1055 (101) -0.1590 (106)
           0.1030 (109) -0.1481 (119)  0.1143 (120) -0.1266 (122)
 CRD 22=   0.2058 (  5)  0.2894 (  6)  0.1456 (  9)  0.2665 ( 14) -0.1229 ( 16)
          -0.1408 ( 27) -0.1444 ( 32)  0.2181 ( 42)  0.2044 ( 48) -0.1254 ( 63)
          -0.1614 ( 64) -0.1056 ( 65) -0.2690 ( 66)  0.1252 ( 77)  0.1859 ( 79)
           0.2375 ( 80) -0.1058 ( 85)  0.1433 ( 94)  0.1281 ( 95)  0.1024 (111)
           0.1040 (112)  0.1150 (113)  0.1540 (114) -0.1898 (116)  0.1029 (119)
 CRD 23=  -0.7080 (  4) -0.4843 (  5)  0.1483 ( 14)  0.1561 ( 31) -0.2139 ( 59)
          -0.1098 ( 79)  0.1864 ( 88)  0.1843 (100)  0.1949 (112)
 CRD 24=   0.1164 (  4) -0.3085 (  5) -0.2398 (  8)  0.3869 (  9) -0.1233 ( 10)
           0.1333 ( 11)  0.1500 ( 18) -0.2355 ( 21)  0.1075 ( 27)  0.1124 ( 29)
          -0.1650 ( 32)  0.1146 ( 66) -0.1791 ( 86) -0.2254 ( 87) -0.1119 ( 88)
          -0.1522 ( 91) -0.1058 (100) -0.1462 (101) -0.1753 (107) -0.2215 (108)
          -0.1197 (112) -0.1601 (113)  0.1093 (116) -0.2329 (117) -0.1866 (118)
 CRD 25=   0.6939 (  8)  0.5419 (  9)  0.2335 ( 60) -0.1297 ( 64)  0.1462 ( 86)
           0.1418 (107) -0.1193 (115)  0.1461 (118)
 CRD 26=  -0.3012 (  5)  0.2277 (  6) -0.1156 (  9) -0.3373 ( 14)  0.1590 ( 18)
           0.1172 ( 21)  0.1228 ( 42)  0.1337 ( 48) -0.1138 ( 59) -0.1459 ( 64)
          -0.1303 ( 65) -0.2524 ( 66)  0.1306 ( 78)  0.1647 ( 79)  0.2929 ( 80)
           0.1049 ( 87) -0.1765 ( 91) -0.1844 (101)  0.1100 (108) -0.1004 (112)
          -0.2003 (113)  0.2064 (114) -0.1658 (116)  0.1120 (117)
 CRD 27=  -0.1935 ( 12) -0.1815 ( 25) -0.1141 ( 34) -0.1194 ( 61) -0.2565 ( 82)
          -0.1485 ( 83)  0.2269 ( 84)  0.1317 ( 85) -0.1334 ( 89) -0.1774 ( 90)
           0.1080 ( 92) -0.1798 ( 94) -0.1103 ( 95)  0.1887 ( 96)  0.3034 ( 97)
          -0.1181 ( 99) -0.2848 (103)  0.1778 (104)  0.1430 (106) -0.2261 (109)
           0.1449 (110) -0.1393 (119)  0.1909 (120) -0.2407 (121)  0.2578 (122)
 CRD 28=  -0.1769 ( 10) -0.3389 ( 12)  0.1949 ( 16)  0.1011 ( 17)  0.4006 ( 18)
           0.2958 ( 19) -0.2598 ( 21)  0.1309 ( 34)  0.2637 ( 39) -0.1052 ( 47)
          -0.2881 ( 52) -0.2565 ( 55)  0.2786 ( 58)  0.1034 ( 94)
 CRD 29=  -0.1703 ( 10)  0.1190 ( 11) -0.1517 ( 14) -0.2017 ( 15) -0.3849 ( 16)
           0.5889 ( 19)  0.1059 ( 20)  0.2625 ( 21)  0.2657 ( 50)  0.1061 ( 52)
          -0.2496 ( 56) -0.1358 ( 58)
 CRD 30=   0.2334 ( 12)  0.1439 ( 14) -0.1186 ( 41) -0.1139 ( 49)  0.1237 ( 62)
          -0.1933 ( 64) -0.2322 ( 67)  0.2289 ( 74) -0.1219 ( 76)  0.1980 ( 79)
           0.2212 ( 82) -0.2420 ( 89)  0.2546 ( 93) -0.2316 ( 97) -0.2467 ( 99)
           0.1690 (102) -0.1659 (105)  0.2399 (106)  0.1551 (110)  0.2067 (111)
          -0.1960 (115) -0.1355 (121)
 CRD 31=  -0.1540 (  4)  0.1023 (  5)  0.1132 (  7)  0.1042 (  8)  0.2286 ( 11)
           0.2839 ( 12) -0.2280 ( 13) -0.2826 ( 16)  0.2413 ( 17)  0.2602 ( 18)
          -0.2641 ( 20) -0.2753 ( 21)  0.1303 ( 22) -0.1220 ( 33) -0.2080 ( 37)
           0.2207 ( 47) -0.1659 ( 52)  0.1675 ( 58) -0.1075 (102)  0.1103 (108)
 CRD 32=   0.1895 (  4) -0.2447 (  5)  0.4793 (  6)  0.1856 (  8) -0.2344 (  9)
          -0.1554 ( 10)  0.3697 ( 14) -0.1550 ( 15)  0.1090 ( 17) -0.1901 ( 18)
           0.1649 ( 19) -0.2140 ( 21) -0.1010 ( 37)  0.1081 ( 54) -0.1363 (112)
           0.1265 (118)
 CRD 33=   0.3016 (  3)  0.1935 (  4) -0.3114 (  7) -0.1239 (  8)  0.1403 ( 10)
          -0.1105 ( 15)  0.1448 ( 17)  0.1690 ( 18) -0.1986 ( 20) -0.1178 ( 21)
          -0.3358 ( 22)  0.1044 ( 27) -0.1184 ( 32)  0.3497 ( 33)  0.1090 ( 55)
          -0.1061 ( 56) -0.1651 ( 59)  0.1362 ( 60)  0.1005 ( 86)  0.1266 ( 88)
           0.1564 (100)  0.1300 (107)  0.1858 (112) -0.1279 (115) -0.1007 (116)
           0.1424 (118)
 CRD 34=   0.1498 (  3) -0.1322 (  7) -0.2211 ( 10)  0.1410 ( 11) -0.1133 ( 13)
           0.2532 ( 15) -0.1103 ( 16) -0.2235 ( 18) -0.1135 ( 19)  0.1311 ( 20)
           0.1918 ( 21)  0.1119 ( 33) -0.2098 ( 37)  0.1949 ( 39)  0.1233 ( 44)
          -0.1280 ( 46)  0.2086 ( 47) -0.2135 ( 50) -0.1825 ( 52)  0.1281 ( 54)
          -0.2755 ( 55)  0.2774 ( 56) -0.1387 ( 57)  0.2064 ( 58) -0.1103 (113)
 CRD 35=  -0.1919 ( 10) -0.1724 ( 11)  0.2845 ( 12) -0.2009 ( 13)  0.2633 ( 14)
          -0.1328 ( 15)  0.2776 ( 16) -0.2368 ( 17)  0.3439 ( 18)  0.2541 ( 19)
          -0.2333 ( 20)  0.4145 ( 21) -0.1310 ( 82)  0.1266 ( 97)
 CRD 36=   0.1253 (  3)  0.1462 (  5) -0.4510 (  6)  0.1113 (  9)  0.3374 ( 14)
          -0.1251 ( 15) -0.1389 ( 18)  0.1139 ( 19) -0.1754 ( 21) -0.1403 ( 26)
           0.1057 ( 53) -0.1564 ( 68)  0.1625 ( 70)  0.1309 ( 87) -0.1429 ( 91)
          -0.1352 (101)  0.1197 (108) -0.1268 (112) -0.2097 (113)  0.1073 (114)
           0.1992 (117)  0.1230 (118)
 CRD 37=   0.1534 (  8) -0.1636 (  9) -0.1353 ( 14) -0.1160 ( 18)  0.1290 ( 20)
           0.1170 ( 25)  0.1157 ( 29)  0.1558 ( 34) -0.1402 ( 42) -0.1023 ( 44)
           0.1290 ( 66) -0.2245 ( 81) -0.2018 ( 82) -0.1301 ( 86)  0.2095 ( 97)
           0.2360 ( 98) -0.1135 (109) -0.1832 (110)  0.2864 (111)  0.1425 (114)
          -0.2487 (115) -0.1018 (118)  0.1659 (121)
 CRD 38=  -0.1274 (  3)  0.1552 (  7)  0.1125 ( 17)  0.1160 ( 21)  0.1695 ( 25)
           0.1260 ( 27) -0.1256 ( 32) -0.1418 ( 34)  0.1451 ( 41)  0.1191 ( 42)
           0.1086 ( 44) -0.1397 ( 48) -0.1475 ( 49)  0.1219 ( 64) -0.1362 ( 66)
          -0.1000 ( 67) -0.1037 ( 74)  0.1267 ( 79) -0.1586 ( 80) -0.2284 ( 84)
          -0.1458 ( 89) -0.1688 ( 93) -0.2013 ( 94)  0.1340 ( 99)  0.2072 (103)
           0.1956 (104)  0.1523 (106)  0.1488 (109)  0.1697 (111) -0.1156 (114)
          -0.1834 (116) -0.2221 (119) -0.2137 (120)  0.1128 (121)  0.1362 (122)
 CRD 39=   0.1107 (  7) -0.1043 (  9) -0.1011 ( 10)  0.2543 ( 11) -0.2702 ( 13)
           0.1696 ( 15) -0.4381 ( 17)  0.1876 ( 18)  0.3746 ( 20) -0.1743 ( 21)
          -0.1219 ( 37) -0.1025 ( 40)  0.1308 ( 47) -0.1084 ( 50)  0.2280 ( 52)
          -0.2385 ( 58)  0.1055 ( 68)  0.1084 ( 70)  0.1177 (112)  0.1219 (118)
          -0.1306 (119) -0.1058 (120)
 CRD 40=   0.1219 ( 10)  0.1622 ( 13) -0.2170 ( 14)  0.1653 ( 15) -0.2640 ( 17)
          -0.1189 ( 18)  0.4010 ( 19) -0.2804 ( 20) -0.1282 ( 38) -0.1314 ( 40)
          -0.1450 ( 50) -0.1611 ( 51) -0.2054 ( 52)  0.3130 ( 53)  0.2150 ( 55)
           0.3059 ( 56) -0.1073 ( 58)
 CRD 41=  -0.1733 (  5) -0.1364 (  8)  0.2309 (  9)  0.3117 ( 10) -0.1673 ( 12)
          -0.1770 ( 15) -0.1341 ( 17)  0.1218 ( 18) -0.1359 ( 21)  0.1737 ( 32)
          -0.1630 ( 37)  0.1713 ( 44) -0.1603 ( 46)  0.1518 ( 47)  0.1016 ( 54)
           0.1060 ( 55) -0.1206 ( 57) -0.1256 ( 58) -0.1305 ( 68) -0.1871 ( 70)
          -0.1363 ( 80)  0.1030 ( 86)  0.2139 ( 87)  0.1545 ( 91) -0.1387 ( 93)
           0.1008 ( 94)  0.1224 ( 99)  0.1179 (101)  0.1019 (103)  0.1196 (108)
          -0.1098 (114)  0.1104 (122)
 CRD 42=  -0.1387 (  4)  0.1124 (  6) -0.1319 (  8)  0.1054 ( 10)  0.2057 ( 15)
          -0.1057 ( 16)  0.1311 ( 19) -0.1806 ( 20)  0.1274 ( 23)  0.1371 ( 26)
          -0.1069 ( 31)  0.1124 ( 36)  0.1240 ( 38) -0.1106 ( 39) -0.1041 ( 45)
           0.1037 ( 53)  0.1221 ( 56)  0.1347 ( 60)  0.1608 ( 62) -0.1313 ( 64)
          -0.1285 ( 76)  0.1095 ( 79) -0.1545 ( 82)  0.1243 ( 86) -0.1145 ( 88)
           0.1489 ( 89)  0.1815 ( 97)  0.2204 (102) -0.1492 (104) -0.1897 (105)
          -0.1343 (106) -0.1018 (108) -0.1483 (109) -0.1511 (110)  0.1288 (116)
           0.1267 (118) -0.1189 (119)  0.1464 (120)  0.1892 (121)
 CRD 43=   0.2824 (  3) -0.1750 (  4)  0.1373 (  7) -0.1612 (  9)  0.1605 ( 11)
          -0.1216 ( 12)  0.1358 ( 13) -0.1342 ( 15) -0.1099 ( 16)  0.1589 ( 18)
           0.1265 ( 21) -0.1051 ( 27) -0.1358 ( 31) -0.1149 ( 32)  0.1115 ( 40)
           0.1540 ( 51) -0.1017 ( 53)  0.1677 ( 54)  0.1042 ( 57)  0.2285 ( 59)
           0.1805 ( 60) -0.1353 ( 81) -0.1359 ( 88)  0.1029 ( 91)  0.1850 (101)
          -0.1311 (102) -0.1905 (108) -0.1312 (110)  0.1569 (111) -0.2057 (112)
          -0.1513 (115)  0.1257 (118)
 CRD 44=   0.2114 (  3) -0.1652 (  4) -0.2672 (  7)  0.1979 (  8) -0.1590 ( 11)
           0.1450 ( 12) -0.1215 ( 17)  0.1458 ( 20) -0.1469 ( 22)  0.1493 ( 29)
          -0.1461 ( 31)  0.1507 ( 33)  0.1056 ( 39) -0.1027 ( 40) -0.1161 ( 57)
          -0.1393 ( 60)  0.1479 ( 69)  0.1048 ( 72) -0.1457 ( 74) -0.1005 ( 85)
          -0.1698 ( 86) -0.1211 ( 88)  0.1566 ( 90)  0.1407 ( 92) -0.1059 ( 98)
           0.1482 ( 99)  0.1011 (104) -0.1422 (105)  0.1414 (106)  0.1189 (108)
           0.1513 (109) -0.1267 (110)  0.1199 (115) -0.1429 (118) -0.1187 (121)
           0.1383 (122)
 CRD 45=  -0.2417 (  3)  0.1809 (  5)  0.1795 ( 11) -0.1349 ( 12) -0.1030 ( 13)
          -0.1241 ( 20)  0.1078 ( 21)  0.1259 ( 27)  0.1305 ( 34) -0.1145 ( 39)
          -0.1036 ( 42) -0.1396 ( 45) -0.2316 ( 59)  0.1063 ( 66) -0.1381 ( 67)
          -0.1120 ( 69)  0.1964 ( 75) -0.1022 ( 77)  0.1141 ( 80) -0.1329 ( 83)
          -0.1774 ( 91)  0.1268 ( 92) -0.1313 ( 93) -0.1012 ( 97)  0.1201 ( 99)
          -0.1418 (101) -0.1235 (102)  0.1725 (106) -0.1367 (107)  0.2128 (109)
          -0.2651 (110)  0.1223 (112) -0.1173 (113)  0.1071 (114)  0.1151 (116)
          -0.1875 (121)
 CRD 46=  -0.1330 (  6)  0.2392 (  7) -0.2073 (  9) -0.1030 ( 13) -0.1076 ( 14)
          -0.1079 ( 15)  0.1942 ( 16)  0.1191 ( 17)  0.1189 ( 22) -0.1286 ( 26)
          -0.1119 ( 27) -0.1764 ( 32)  0.1015 ( 41)  0.1784 ( 43)  0.1465 ( 47)
           0.1327 ( 50)  0.1420 ( 60)  0.1078 ( 61) -0.1680 ( 63) -0.1141 ( 65)
           0.1176 ( 69) -0.1546 ( 72) -0.1178 ( 74)  0.1297 ( 77)  0.1046 ( 80)
          -0.1482 ( 87)  0.1402 ( 88)  0.1313 ( 91)  0.1225 ( 94)  0.1406 (102)
          -0.1732 (105) -0.1190 (108) -0.1007 (110)  0.1182 (116) -0.1792 (117)
           0.1878 (120) -0.1178 (121)  0.1161 (122)
 CRD 47=   0.1526 (  3) -0.1108 (  5) -0.1308 (  8) -0.3166 ( 13)  0.2170 ( 15)
          -0.1555 ( 18) -0.1545 ( 23)  0.1548 ( 24) -0.1004 ( 29) -0.1111 ( 30)
           0.1877 ( 46) -0.1561 ( 51) -0.2315 ( 54)  0.1700 ( 59)  0.1346 ( 61)
           0.1607 ( 68) -0.1445 ( 72) -0.1007 ( 80) -0.1259 ( 88) -0.2077 (100)
           0.1352 (109)  0.2921 (113) -0.1218 (115) -0.1115 (116) -0.1578 (121)
 CRD 48=  -0.1522 (  4)  0.1993 (  5) -0.1398 (  9)  0.2667 ( 10) -0.2354 ( 11)
           0.1045 ( 14) -0.1147 ( 22)  0.1362 ( 27) -0.1256 ( 31)  0.1389 ( 35)
          -0.1710 ( 36) -0.1011 ( 40)  0.1837 ( 44) -0.1825 ( 57)  0.1269 ( 60)
           0.1314 ( 66)  0.1151 ( 68) -0.1936 ( 70)  0.1160 ( 71) -0.1513 ( 77)
          -0.1281 ( 78)  0.1352 ( 86) -0.1240 (101)  0.1208 (107)  0.1052 (110)
           0.1356 (114) -0.3146 (117) -0.1547 (118)  0.1655 (119)
 CRD 49=   0.1584 (  3) -0.1891 (  7)  0.2473 (  8)  0.1097 ( 10)  0.1362 ( 11)
          -0.2304 ( 12) -0.1681 ( 13) -0.1036 ( 20)  0.1050 ( 28)  0.1500 ( 29)
           0.1218 ( 33) -0.1018 ( 35) -0.1208 ( 37) -0.1110 ( 39)  0.1015 ( 40)
           0.1004 ( 44) -0.1404 ( 45) -0.1791 ( 60)  0.1374 ( 64) -0.1145 ( 65)
           0.1049 ( 70)  0.2149 ( 73)  0.1990 ( 74) -0.1597 ( 76) -0.1339 ( 81)
           0.1548 ( 87) -0.1534 ( 92)  0.1078 ( 95) -0.1013 (100) -0.2785 (107)
           0.1180 (115) -0.1662 (118)
 CRD 50=   0.1849 (  4) -0.1379 (  5)  0.1138 (  7)  0.1281 ( 10) -0.1850 ( 11)
           0.1332 ( 14)  0.1783 ( 15) -0.2177 ( 16)  0.1190 ( 22) -0.1539 ( 26)
          -0.1370 ( 27)  0.1266 ( 31)  0.2030 ( 38) -0.1532 ( 43)  0.1304 ( 44)
           0.1846 ( 46) -0.1497 ( 47)  0.1096 ( 49)  0.2013 ( 62)  0.1045 ( 63)
          -0.2734 ( 71)  0.1210 ( 73)  0.1265 ( 78) -0.1012 ( 79) -0.1154 ( 81)
           0.1231 ( 89)  0.1179 ( 90) -0.1091 ( 91)  0.2120 ( 98)  0.1503 (100)
           0.1271 (101)  0.1073 (112) -0.1132 (117)  0.1129 (120)
 CRD 51=  -0.2140 ( 23)  0.1664 ( 24) -0.1478 ( 30) -0.1314 ( 36)  0.2433 ( 61)
          -0.1251 ( 71)  0.1551 ( 74)  0.2789 ( 83)  0.1837 ( 90) -0.1698 ( 92)
          -0.2812 ( 96) -0.1521 (102)  0.1076 (105) -0.2662 (109)  0.1193 (110)
          -0.1833 (121)  0.3736 (122)
 CRD 52=  -0.2180 ( 15) -0.2134 ( 23)  0.1020 ( 28) -0.1147 ( 35) -0.1755 ( 36)
           0.1603 ( 45)  0.1115 ( 47) -0.1003 ( 50)  0.2236 ( 62)  0.1563 ( 67)
          -0.1376 ( 73)  0.1108 ( 75) -0.2567 ( 76) -0.1236 ( 83) -0.2386 ( 85)
           0.1512 ( 89) -0.1315 ( 93)  0.2487 ( 95)  0.1820 ( 96) -0.1679 (103)
           0.1018 (104)  0.1196 (109) -0.2685 (119)  0.2398 (120) -0.1860 (122)
 CRD 53=   0.1076 ( 23) -0.1172 ( 24) -0.1079 ( 29)  0.1219 ( 30) -0.1086 ( 31)
           0.1125 ( 36) -0.1477 ( 63)  0.2528 ( 64)  0.2199 ( 65)  0.1065 ( 71)
           0.1534 ( 77) -0.2192 ( 78) -0.2921 ( 79) -0.1618 ( 81)  0.1424 ( 83)
           0.1471 ( 90) -0.1712 ( 96)  0.1722 ( 98) -0.1011 (109)  0.3534 (114)
          -0.1289 (115) -0.2842 (116) -0.1003 (119)  0.1387 (120) -0.1081 (121)
           0.1509 (122)
 CRD 54=  -0.1856 ( 10)  0.1327 ( 22) -0.2336 ( 23) -0.1020 ( 24)  0.1442 ( 25)
          -0.1353 ( 28)  0.1275 ( 29)  0.2003 ( 30)  0.2409 ( 35) -0.3278 ( 36)
           0.1018 ( 37) -0.1727 ( 39)  0.1270 ( 40)  0.1152 ( 42)  0.1779 ( 43)
          -0.1042 ( 48) -0.1281 ( 49)  0.1181 ( 50) -0.1288 ( 51)  0.1000 ( 57)
           0.1968 ( 62)  0.1070 ( 63) -0.1211 ( 67)  0.1422 ( 71)  0.1302 ( 73)
          -0.1142 ( 74) -0.1284 ( 75) -0.1424 ( 76) -0.1527 ( 85)  0.1289 ( 90)
           0.1612 ( 95)  0.1044 (105)  0.1127 (120)

 THE DETERMINANT OF THE G MATRIX IS 10**(   -20)


                     --------------------
                     INTERNAL COORDINATES
                     --------------------

                 - - ATOMS - -         COORDINATE      COORDINATE
 NO.   TYPE    I  J  K  L  M  N        (BOHR,RAD)       (ANG,DEG)
 ----------------------------------------------------------------
   1 STRETCH   1  6                     3.7843861       2.0026110
   2 STRETCH   3  4                     3.7763062       1.9983353
   3 STRETCH   1  2                     2.5653001       1.3574984
   4 STRETCH   1 12                     2.0652694       1.0928936
   5 STRETCH   1 11                     2.0704146       1.0956163
   6 STRETCH   2 13                     2.0542706       1.0870733
   7 STRETCH   2  3                     2.8430432       1.5044738
   8 STRETCH   3 14                     2.0659973       1.0932788
   9 STRETCH   3 15                     2.0647131       1.0925992
  10 STRETCH   4  9                     2.8691171       1.5182715
  11 STRETCH   4  5                     2.8414392       1.5036250
  12 STRETCH   4 16                     2.0637896       1.0921105
  13 STRETCH   5  6                     2.5723061       1.3612059
  14 STRETCH   5 17                     2.0513866       1.0855471
  15 STRETCH   6  7                     2.8019812       1.4827447
  16 STRETCH   6 18                     2.0710328       1.0959434
  17 STRETCH   7  8                     2.5340889       1.3409822
  18 STRETCH   7 19                     2.0538854       1.0868694
  19 STRETCH   8 20                     2.0435944       1.0814237
  20 STRETCH   8  9                     2.8074580       1.4856429
  21 STRETCH   9 10                     2.3232407       1.2294061
  22 BEND      1  2 13                  2.0903793     119.7699134
  23 BEND      1  6  7                  1.8444843     105.6811684
  24 BEND      1  6  5                  1.7960276     102.9048014
  25 BEND      1  6 18                  1.6703409      95.7034854
  26 BEND      1  2  3                  2.0917569     119.8488400
  27 BEND      2  1 12                  2.0596959     118.0118797
  28 BEND      2  3  4                  1.8408487     105.4728586
  29 BEND      2  3 15                  2.0116504     115.2590773
  30 BEND      2  1  6                  1.9057459     109.1911995
  31 BEND      2  1 11                  2.0223004     115.8692753
  32 BEND      2  3 14                  1.9663869     112.6656700
  33 BEND      3  2 13                  2.0490263     117.4005584
  34 BEND      3  4 16                  1.8529760     106.1677044
  35 BEND      3  4  5                  1.8045976     103.3958267
  36 BEND      3  4  9                  1.8193788     104.2427283
  37 BEND      4  5 17                  2.0695933     118.5789595
  38 BEND      4  5  6                  2.0251019     116.0297943
  39 BEND      4  9 10                  2.1398146     122.6023454
  40 BEND      4  9  8                  2.0561796     117.8104137
  41 BEND      4  3 15                  1.8539643     106.2243320
  42 BEND      4  3 14                  1.8014001     103.2126203
  43 BEND      5  6  7                  2.0055912     114.9119118
  44 BEND      5  4 16                  2.0098261     115.1545551
  45 BEND      5  4  9                  1.9821769     113.5703728
  46 BEND      5  6 18                  2.0646389     118.2950976
  47 BEND      6  5 17                  2.1032747     120.5087639
  48 BEND      6  1 12                  1.7960758     102.9075647
  49 BEND      6  1 11                  1.5357437      87.9916330
  50 BEND      6  7 19                  2.0341671     116.5491892
  51 BEND      6  7  8                  2.1473978     123.0368316
  52 BEND      7  8 20                  2.1558488     123.5210358
  53 BEND      7  8  9                  2.0751812     118.8991239
  54 BEND      7  6 18                  2.0132165     115.3488066
  55 BEND      8  9 10                  2.0864951     119.5473660
  56 BEND      8  7 19                  2.1015666     120.4108978
  57 BEND      9  4 16                  1.9700507     112.8755920
  58 BEND      9  8 20                  2.0521492     117.5794908
  59 BEND     11  1 12                  2.0393151     116.8441473
  60 BEND     14  3 15                  1.9675423     112.7318672
  61 TORSION   1  6  7  8               1.5197633      87.0760232
  62 TORSION   1  6  5 17               1.5121134      86.6377179
  63 TORSION   1  6  5  4              -1.1917021     -68.2795018
  64 TORSION   1  2  3 15               1.1004956      63.0537511
  65 TORSION   1  2  3  4              -0.9383686     -53.7645625
  66 TORSION   1  2  3 14              -2.8909839    -165.6411738
  67 TORSION   1  6  7 19              -1.6329511     -93.5612090
  68 TORSION   2  1  6 18               2.1651867     124.0560572
  69 TORSION   2  3  4  9               1.9503105     111.7445591
  70 TORSION   2  3  4 16              -2.2486530    -128.8383273
  71 TORSION   2  1  6  5               0.0573467       3.2857249
  72 TORSION   2  1  6  7              -2.0523191    -117.5892214
  73 TORSION   2  3  4  5              -0.1263306      -7.2382108
  74 TORSION   3  4  9 10               1.4275448      81.7922917
  75 TORSION   3  4  9  8              -1.6737370     -95.8980672
  76 TORSION   3  4  5 17              -1.4800927     -84.8030624
  77 TORSION   3  4  5  6               1.2325566      70.6202886
  78 TORSION   3  2  1  6               1.0035931      57.5016464
  79 TORSION   3  2  1 11              -0.6950919     -39.8258308
  80 TORSION   3  2  1 12               3.0445959     174.4424949
  81 TORSION   4  3  2 13               1.8617312     106.6693407
  82 TORSION   4  9  8 20              -3.0838155    -176.6896111
  83 TORSION   4  9  8  7               0.0613976       3.5178209
  84 TORSION   4  5  6 18              -3.0039710    -172.1148618
  85 TORSION   4  5  6  7               0.8039018      46.0601817
  86 TORSION   5  4  3 15              -2.2695527    -130.0357886
  87 TORSION   5  4  3 14               1.9402341     111.1672247
  88 TORSION   5  6  1 11               2.0949892     120.0340395
  89 TORSION   5  6  7 19               2.6829889     153.7239380
  90 TORSION   5  6  7  8              -0.4474820     -25.6388299
  91 TORSION   5  6  1 12              -2.1444439    -122.8675829
  92 TORSION   5  4  9  8               0.2777068      15.9114251
  93 TORSION   5  4  9 10              -2.9041967    -166.3982161
  94 TORSION   6  5  4 16              -3.0374824    -174.0349244
  95 TORSION   6  5  4  9              -0.7278565     -41.7031059
  96 TORSION   6  7  8  9               0.0017585       0.1007532
  97 TORSION   6  7  8 20              -3.1359850    -179.6787056
  98 TORSION   6  1  2 13              -1.7883941    -102.4674345
  99 TORSION   7  8  9 10              -3.0411600    -174.2456336
 100 TORSION   7  6  1 11              -0.0146766      -0.8409068
 101 TORSION   7  6  1 12               2.0290756     116.2574708
 102 TORSION   7  6  5 17              -2.7754679    -159.0225985
 103 TORSION   8  7  6 18              -2.9428219    -168.6112748
 104 TORSION   8  9  4 16               2.6064197     149.3368496
 105 TORSION   9  4  5 17               2.8426796     162.8735431
 106 TORSION   9  8  7 19              -3.1282980    -179.2382704
 107 TORSION   9  4  3 15              -0.1929116     -11.0530186
 108 TORSION   9  4  3 14              -2.2663101    -129.8500053
 109 TORSION  10  9  8 20               0.0968123       5.5469344
 110 TORSION  10  9  4 16              -0.5754838     -32.9727916
 111 TORSION  11  1  2 13               2.7961063     160.2050883
 112 TORSION  11  1  6 18              -2.0803562    -119.1956282
 113 TORSION  12  1  6 18              -0.0366039      -2.0972506
 114 TORSION  12  1  2 13               0.2526087      14.4734140
 115 TORSION  13  2  3 15              -2.3825899    -136.5123456
 116 TORSION  13  2  3 14              -0.0908840      -5.2072706
 117 TORSION  14  3  4 16              -0.1820883     -10.4328917
 118 TORSION  15  3  4 16               1.8913102     108.3640949
 119 TORSION  16  4  5 17               0.5330537      30.5417246
 120 TORSION  17  5  6 18              -0.3001555     -17.1976421
 121 TORSION  18  6  7 19               0.1876490      10.7514930
 122 TORSION  19  7  8 20               0.0171439       0.9822707

     ------------------------------------------
     THE POINT GROUP IS C1 , NAXIS= 0, ORDER= 1
     ------------------------------------------

     DIMENSIONS OF THE SYMMETRY SUBSPACES ARE
 A   =   60

 ..... DONE SETTING UP THE RUN .....
 STEP CPU TIME =     0.06 TOTAL CPU TIME =          0.1 (      0.0 MIN)
 TOTAL WALL CLOCK TIME=          0.1 SECONDS, CPU UTILIZATION IS    75.00%


          -----------------------------
          STATIONARY POINT LOCATION RUN
          -----------------------------


           ** GEOMETRY CONSTRAINTS ARE BEING APPLIED. **

          TRANSFORMING DISPLACEMENT FROM INTERNALS TO CARTESIANS
          THE ROOT MEAN SQUARE ERROR IN ITERATION   1 IS   0.00000138
          THE ROOT MEAN SQUARE ERROR IN ITERATION   2 IS   0.00000000
 WARNING! THE RADIUS IN CARTESIANS IS    0.00948
 OBTAINING INITIAL HESSIAN, HESS=CALC    

     ---------------------------------
     HESSIAN MATRIX CONTROL PARAMETERS
     ---------------------------------
     METHOD=ANALYTIC   NVIB  =       2   VIBSIZ= 0.01000
     RDHESS=       F   PURIFY=       F   PRTIFC=       F
     VIBANL=       F   DECOMP=       F   PROJCT=       F
     SCLFAC= 1.00000   PRTSCN=       F   NPRT  =       0
     PULCOR=       F   NPUN  =       0   REDOVB=       T
     HSSTYP=GENERAL 
 Old integral subroutine is used

     ------------------------------
     CPHF RESPONSE SOLUTION OPTIONS
     ------------------------------
     POLAR  =       F     NWORD  =       0
     CPHF   =AO      

          ********************
          1 ELECTRON INTEGRALS
          ********************
 ...... END OF ONE-ELECTRON INTEGRALS ......
 STEP CPU TIME =     0.04 TOTAL CPU TIME =          0.1 (      0.0 MIN)
 TOTAL WALL CLOCK TIME=          0.1 SECONDS, CPU UTILIZATION IS    90.91%

          -------------
          GUESS OPTIONS
          -------------
          GUESS =HUCKEL            NORB  =       0          NORDER=       0
          MIX   =       F          PRTMO =       F          PUNMO =       F
          TOLZ  = 1.0E-08          TOLE  = 1.0E-05
          SYMDEN=       F          PURIFY=       F

 INITIAL GUESS ORBITALS GENERATED BY HUCKEL   ROUTINE.
 HUCKEL GUESS REQUIRES     53820 WORDS.

 SYMMETRIES FOR INITIAL GUESS ORBITALS FOLLOW.   BOTH SET(S).
    36 ORBITALS ARE OCCUPIED (   10 CORE ORBITALS).
    11=A       12=A       13=A       14=A       15=A       16=A       17=A   
    18=A       19=A       20=A       21=A       22=A       23=A       24=A   
    25=A       26=A       27=A       28=A       29=A       30=A       31=A   
    32=A       33=A       34=A       35=A       36=A       37=A       38=A   
    39=A       40=A       41=A       42=A       43=A       44=A       45=A   
    46=A   
 ...... END OF INITIAL ORBITAL SELECTION ......
 STEP CPU TIME =     0.01 TOTAL CPU TIME =          0.1 (      0.0 MIN)
 TOTAL WALL CLOCK TIME=          0.1 SECONDS, CPU UTILIZATION IS    84.62%

                    ----------------------
                    AO INTEGRAL TECHNOLOGY
                    ----------------------
     S,P,L SHELL ROTATED AXIS INTEGRALS, REPROGRAMMED BY
        KAZUYA ISHIMURA (IMS) AND JOSE SIERRA (SYNSTAR).
     S,P,D,L SHELL ROTATED AXIS INTEGRALS PROGRAMMED BY
        KAZUYA ISHIMURA (INSTITUTE FOR MOLECULAR SCIENCE).
     S,P,D,F,G SHELL TO TOTAL QUARTET ANGULAR MOMENTUM SUM 5,
        ERIC PROGRAM BY GRAHAM FLETCHER (ELORET AND NASA ADVANCED
        SUPERCOMPUTING DIVISION, AMES RESEARCH CENTER).
     S,P,D,F,G,L SHELL GENERAL RYS QUADRATURE PROGRAMMED BY
        MICHEL DUPUIS (PACIFIC NORTHWEST NATIONAL LABORATORY).

          --------------------
          2 ELECTRON INTEGRALS
          --------------------

 THE -PK- OPTION IS OFF, THE INTEGRALS ARE NOT IN SUPERMATRIX FORM.
 STORING   15000 INTEGRALS/RECORD ON DISK, USING 12 BYTES/INTEGRAL.
 TWO ELECTRON INTEGRAL EVALUATION REQUIRES   89821 WORDS OF MEMORY.
 SCHWARZ INEQUALITY OVERHEAD:      1797 INTEGRALS, T=        0.00
 II,JST,KST,LST =  1  1  1  1 NREC =         1 INTLOC =    1
 II,JST,KST,LST =  2  1  1  1 NREC =         1 INTLOC =    2
 II,JST,KST,LST =  3  1  1  1 NREC =         1 INTLOC =   34
 II,JST,KST,LST =  4  1  1  1 NREC =         1 INTLOC =  144
 II,JST,KST,LST =  5  1  1  1 NREC =         1 INTLOC = 1366
 II,JST,KST,LST =  6  1  1  1 NREC =         1 INTLOC = 1956
 II,JST,KST,LST =  7  1  1  1 NREC =         1 INTLOC = 6856
 II,JST,KST,LST =  8  1  1  1 NREC =         1 INTLOC = 8473
 II,JST,KST,LST =  9  1  1  1 NREC =         2 INTLOC = 5867
 II,JST,KST,LST = 10  1  1  1 NREC =         2 INTLOC = 9564
 II,JST,KST,LST = 11  1  1  1 NREC =         4 INTLOC = 4834
 II,JST,KST,LST = 12  1  1  1 NREC =         4 INTLOC =11950
 II,JST,KST,LST = 13  1  1  1 NREC =         7 INTLOC =12003
 II,JST,KST,LST = 14  1  1  1 NREC =         8 INTLOC = 8295
 II,JST,KST,LST = 15  1  1  1 NREC =        13 INTLOC = 5504
 II,JST,KST,LST = 16  1  1  1 NREC =        14 INTLOC = 7476
 II,JST,KST,LST = 17  1  1  1 NREC =        21 INTLOC =10549
 II,JST,KST,LST = 18  1  1  1 NREC =        23 INTLOC = 6454
 II,JST,KST,LST = 19  1  1  1 NREC =        33 INTLOC =13723
 II,JST,KST,LST = 20  1  1  1 NREC =        35 INTLOC = 9164
 II,JST,KST,LST = 21  1  1  1 NREC =        47 INTLOC =11597
 II,JST,KST,LST = 22  1  1  1 NREC =        51 INTLOC =12996
 II,JST,KST,LST = 23  1  1  1 NREC =        55 INTLOC =12582
 II,JST,KST,LST = 24  1  1  1 NREC =        59 INTLOC =14989
 II,JST,KST,LST = 25  1  1  1 NREC =        64 INTLOC =10346
 II,JST,KST,LST = 26  1  1  1 NREC =        69 INTLOC =12871
 II,JST,KST,LST = 27  1  1  1 NREC =        75 INTLOC = 4451
 II,JST,KST,LST = 28  1  1  1 NREC =        80 INTLOC =14473
 II,JST,KST,LST = 29  1  1  1 NREC =        86 INTLOC =12086
 II,JST,KST,LST = 30  1  1  1 NREC =        92 INTLOC =13457
 SCHWARZ INEQUALITY TEST SKIPPED       25104 INTEGRAL BLOCKS.
 TOTAL NUMBER OF NONZERO TWO-ELECTRON INTEGRALS =             1474758
         99 INTEGRAL RECORDS WERE STORED ON DISK FILE  8.
  ...... END OF TWO-ELECTRON INTEGRALS .....
 STEP CPU TIME =     0.25 TOTAL CPU TIME =          0.4 (      0.0 MIN)
 TOTAL WALL CLOCK TIME=          0.4 SECONDS, CPU UTILIZATION IS    92.31%

          --------------------------
                 RHF SCF CALCULATION
          --------------------------

     NUCLEAR ENERGY =       505.3455207618
     MAXIT =   30     NPUNCH=    2
     EXTRAP=T  DAMP=F  SHIFT=F  RSTRCT=F  DIIS=F  DEM=F  SOSCF=T
     DENSITY MATRIX CONV=  1.00E-05
     SOSCF WILL OPTIMIZE     864 ORBITAL ROTATIONS, SOGTOL=   0.250
     MEMORY REQUIRED FOR RHF ITERS=     59496 WORDS.

 ITER EX DEM     TOTAL ENERGY        E CHANGE  DENSITY CHANGE     ORB. GRAD
   1  0  0     -415.4873961506  -415.4873961506   0.527173508   0.000000000
          ---------------START SECOND ORDER SCF---------------
   2  1  0     -416.0006831704    -0.5132870198   0.318229850   0.061556375
   3  2  0     -416.0331775793    -0.0324944088   0.148647383   0.049681650
   4  3  0     -416.0677076153    -0.0345300360   0.030706054   0.006418217
   5  4  0     -416.0686502043    -0.0009425890   0.009675004   0.003262649
   6  5  0     -416.0687927094    -0.0001425051   0.002714533   0.000837783
   7  6  0     -416.0688130937    -0.0000203843   0.000925281   0.000254072
   8  7  0     -416.0688151708    -0.0000020771   0.000395125   0.000103013
   9  8  0     -416.0688156012    -0.0000004304   0.000131041   0.000035334
  10  9  0     -416.0688156568    -0.0000000555   0.000084064   0.000016166
  11 10  0     -416.0688156651    -0.0000000084   0.000022270   0.000003366
  12 11  0     -416.0688156661    -0.0000000010   0.000012847   0.000002115
  13 12  0     -416.0688156663    -0.0000000002   0.000006573   0.000000817

          -----------------
          DENSITY CONVERGED
          -----------------
     TIME TO FORM FOCK OPERATORS=       0.3 SECONDS (       0.0 SEC/ITER)
     TIME TO SOLVE SCF EQUATIONS=       0.0 SECONDS (       0.0 SEC/ITER)

 FINAL RHF ENERGY IS     -416.0688156663 AFTER  13 ITERATIONS

          ------------
          EIGENVECTORS
          ------------

                      1          2          3          4          5
                  -20.2542   -11.1106   -11.0518   -11.0505   -11.0499
                     A          A          A          A          A   
    1  C  1  S    0.000000   0.000035  -0.019986   0.000135  -0.002404
    2  C  1  S    0.000001   0.000024  -0.003459  -0.000139   0.000001
    3  C  1  X    0.000000   0.000010  -0.002482  -0.000100  -0.000068
    4  C  1  Y   -0.000002   0.000003   0.000498  -0.000030  -0.000018
    5  C  1  Z    0.000002  -0.000029  -0.000347  -0.000007  -0.000066
    6  C  2  S    0.000000   0.000016  -0.000397   0.000424  -0.001318
    7  C  2  S    0.000001   0.000007   0.000303   0.003124  -0.004910
    8  C  2  X   -0.000002   0.000023   0.000163   0.000990  -0.001488
    9  C  2  Y   -0.000001  -0.000004  -0.000115   0.001910  -0.003081
   10  C  2  Z    0.000007  -0.000040  -0.000137   0.000661  -0.001054
   11  C  3  S   -0.000006  -0.000329   0.002448  -0.514150   0.848759
   12  C  3  S    0.000023   0.000120   0.000158  -0.020186   0.028349
   13  C  3  X    0.000030  -0.000184   0.000036  -0.001095  -0.002792
   14  C  3  Y    0.000017   0.000022   0.000015   0.000267   0.000594
   15  C  3  Z   -0.000031   0.000111   0.000028  -0.000169  -0.000037
   16  C  4  S   -0.000023  -0.001847  -0.027404   0.847864   0.514666
   17  C  4  S    0.000263  -0.005564  -0.000925   0.031020   0.015848
   18  C  4  X    0.000102  -0.001732   0.000055   0.000385   0.002999
   19  C  4  Y    0.000414  -0.002223   0.000053  -0.000101  -0.000681
   20  C  4  Z    0.000146   0.002951   0.000226  -0.000194   0.000084
   21  C  5  S    0.000005  -0.000307   0.008886  -0.001077  -0.001503
   22  C  5  S    0.000013   0.000081  -0.007148  -0.005289  -0.003120
   23  C  5  X   -0.000040  -0.000056   0.000844   0.000026   0.000025
   24  C  5  Y   -0.000011  -0.000012   0.001730  -0.003597  -0.002105
   25  C  5  Z    0.000071   0.000050   0.004332  -0.000413  -0.000251
   26  C  6  S    0.000003  -0.000328   0.991036   0.024539   0.011941
   27  C  6  S    0.000016  -0.000061   0.036982   0.001062   0.000565
   28  C  6  X    0.000003  -0.000037   0.001734   0.000088   0.000069
   29  C  6  Y   -0.000038  -0.000129   0.000422  -0.000020  -0.000049
   30  C  6  Z   -0.000007   0.000004   0.001012  -0.000003   0.000014
   31  C  7  S    0.000007  -0.000414  -0.026552  -0.009528  -0.006383
   32  C  7  S    0.000016   0.000122  -0.007292  -0.000568  -0.000332
   33  C  7  X    0.000032  -0.000007   0.001913   0.000079   0.000034
   34  C  7  Y    0.000005  -0.000012   0.002183  -0.000043  -0.000032
   35  C  7  Z   -0.000080   0.000009  -0.003356  -0.000193  -0.000101
   36  C  8  S   -0.000026  -0.000822  -0.001041  -0.000913  -0.000447
   37  C  8  S    0.000374  -0.006036   0.000375   0.000171   0.000132
   38  C  8  X    0.000138   0.000613  -0.000056  -0.000006  -0.000025
   39  C  8  Y    0.000466  -0.002165  -0.000163  -0.000087  -0.000036
   40  C  8  Z   -0.000022  -0.003600   0.000113   0.000016   0.000017
   41  C  9  S    0.000557   0.992508   0.000278   0.002236   0.001781
   42  C  9  S   -0.007141   0.033182   0.000118  -0.005059  -0.002988
   43  C  9  X   -0.001446   0.000047   0.000007   0.001427   0.000840
   44  C  9  Y   -0.006125   0.000406   0.000083   0.001882   0.001097
   45  C  9  Z   -0.000459  -0.000380   0.000165  -0.002839  -0.001653
   46  O 10  S    0.994274   0.000183   0.000006  -0.000012  -0.000018
   47  O 10  S    0.025897  -0.005837  -0.000060   0.000190   0.000168
   48  O 10  X   -0.001265   0.000425   0.000005  -0.000041  -0.000056
   49  O 10  Y   -0.005366   0.001753   0.000039  -0.000109  -0.000092
   50  O 10  Z   -0.000432   0.000163  -0.000010   0.000128   0.000084
   51  H 11  S    0.000003  -0.000065   0.000125   0.000063  -0.000106
   52  H 12  S   -0.000001  -0.000005   0.000332   0.000024  -0.000060
   53  H 13  S   -0.000002   0.000005  -0.000001  -0.000058   0.000085
   54  H 14  S    0.000002  -0.000058  -0.000031   0.003622  -0.005805
   55  H 15  S    0.000011  -0.000475  -0.000019   0.003614  -0.005799
   56  H 16  S   -0.000138  -0.000051   0.000062  -0.005945  -0.003484
   57  H 17  S   -0.000024  -0.000066   0.000075   0.000069   0.000041
   58  H 18  S   -0.000017  -0.000039  -0.006821  -0.000243  -0.000139
   59  H 19  S   -0.000024  -0.000062   0.000275   0.000025   0.000019
   60  H 20  S   -0.000214   0.000022  -0.000032  -0.000044  -0.000028

                      6          7          8          9         10
                  -11.0482   -11.0372   -11.0256   -11.0199   -11.0051
                     A          A          A          A          A   
    1  C  1  S   -0.000145   0.991899  -0.000600   0.002199  -0.008281
    2  C  1  S    0.000345   0.036414   0.000066   0.000195  -0.007917
    3  C  1  X   -0.000123  -0.001301   0.000014  -0.000110   0.001464
    4  C  1  Y    0.000149   0.001105   0.000030  -0.000018  -0.002168
    5  C  1  Z   -0.000170   0.000698  -0.000071  -0.000147  -0.003921
    6  C  2  S    0.000027   0.008953   0.000045  -0.007623   0.992137
    7  C  2  S   -0.000019  -0.007294   0.000016  -0.000741   0.035986
    8  C  2  X    0.000019  -0.001412   0.000005  -0.000614   0.001670
    9  C  2  Y    0.000026   0.002220  -0.000010   0.000201  -0.001273
   10  C  2  Z    0.000008   0.003828   0.000000  -0.000164  -0.000592
   11  C  3  S    0.000582   0.002249  -0.000111   0.000727   0.002272
   12  C  3  S   -0.000004   0.000166   0.000017   0.000160  -0.005715
   13  C  3  X   -0.000022  -0.000089   0.000006  -0.000072   0.001778
   14  C  3  Y    0.000004   0.000021   0.000010   0.000096   0.003677
   15  C  3  Z   -0.000015   0.000121  -0.000011  -0.000035   0.001207
   16  C  4  S    0.010773   0.000587   0.000820   0.002902   0.000343
   17  C  4  S    0.000374   0.000037   0.000235  -0.005754   0.000087
   18  C  4  X    0.000013   0.000054   0.000041  -0.000007   0.000039
   19  C  4  Y    0.000037  -0.000014  -0.000017   0.004198   0.000062
   20  C  4  Z    0.000137   0.000057  -0.000024   0.000631   0.000030
   21  C  5  S   -0.001458  -0.001888  -0.005675   0.992123   0.007867
   22  C  5  S   -0.000212  -0.000115  -0.000331   0.035937  -0.000214
   23  C  5  X   -0.000115   0.000067  -0.000068  -0.002082   0.000636
   24  C  5  Y   -0.000106  -0.000022  -0.000120  -0.000088  -0.000123
   25  C  5  Z    0.000180  -0.000015   0.000161  -0.001470   0.000039
   26  C  6  S    0.027840   0.020915   0.000671  -0.008089   0.000160
   27  C  6  S   -0.005006  -0.001923   0.000418  -0.007892   0.000153
   28  C  6  X   -0.002007   0.002522   0.000099  -0.000874  -0.000034
   29  C  6  Y   -0.002167  -0.000534   0.000029  -0.001413  -0.000016
   30  C  6  Z    0.003030   0.000160  -0.000089  -0.004388  -0.000052
   31  C  7  S    0.991675  -0.000456  -0.015768   0.001694  -0.000028
   32  C  7  S    0.035729   0.000091  -0.008431   0.000119  -0.000013
   33  C  7  X    0.000310  -0.000213  -0.001441  -0.000141  -0.000013
   34  C  7  Y    0.001190   0.000054  -0.004383  -0.000144   0.000033
   35  C  7  Z    0.000240  -0.000058  -0.000477  -0.000192  -0.000005
   36  C  8  S    0.016341   0.000546   0.992025   0.005765  -0.000007
   37  C  8  S   -0.007122   0.000062   0.036421   0.000161  -0.000012
   38  C  8  X    0.001396  -0.000033  -0.000649  -0.000002  -0.000000
   39  C  8  Y    0.004257  -0.000009  -0.001421   0.000077   0.000003
   40  C  8  Z    0.000420  -0.000002   0.000321  -0.000169  -0.000002
   41  C  9  S    0.000540  -0.000033   0.001804   0.000386  -0.000017
   42  C  9  S    0.000043   0.000010  -0.006251   0.000071  -0.000003
   43  C  9  X    0.000094  -0.000017  -0.000678  -0.000061  -0.000026
   44  C  9  Y    0.000223  -0.000002   0.002005   0.000116  -0.000006
   45  C  9  Z   -0.000059   0.000004   0.003726   0.000020  -0.000025
   46  O 10  S    0.000014   0.000000  -0.000019   0.000009   0.000000
   47  O 10  S   -0.000127  -0.000002   0.000307  -0.000078   0.000002
   48  O 10  X    0.000004  -0.000000   0.000000   0.000033   0.000005
   49  O 10  Y    0.000066   0.000002  -0.000165   0.000033  -0.000002
   50  O 10  Z    0.000027  -0.000001  -0.000117  -0.000014  -0.000000
   51  H 11  S   -0.001055  -0.006805  -0.000184  -0.000032   0.000025
   52  H 12  S   -0.000020  -0.006805  -0.000003  -0.000050   0.000152
   53  H 13  S    0.000006   0.000053  -0.000002   0.000083  -0.006909
   54  H 14  S   -0.000002  -0.000115  -0.000003  -0.000018   0.000039
   55  H 15  S    0.000003   0.000007  -0.000025  -0.000070  -0.000091
   56  H 16  S   -0.000126  -0.000029  -0.000063   0.000016  -0.000041
   57  H 17  S   -0.000084   0.000013  -0.000014  -0.006872  -0.000086
   58  H 18  S   -0.000125  -0.000027  -0.000084   0.000165  -0.000026
   59  H 19  S   -0.006827   0.000017   0.000215  -0.000117   0.000002
   60  H 20  S    0.000023  -0.000003  -0.006839  -0.000096   0.000001

                     11         12         13         14         15
                   -1.3066    -1.0874    -1.0081    -0.9579    -0.9334
                     A          A          A          A          A   
    1  C  1  S   -0.000733  -0.055542  -0.125459   0.071017  -0.055583
    2  C  1  S    0.001773   0.146020   0.336187  -0.193907   0.157903
    3  C  1  X    0.000403   0.013437  -0.033304   0.028393   0.019796
    4  C  1  Y    0.000351   0.013369   0.047900  -0.026714  -0.018373
    5  C  1  Z    0.000228   0.020052   0.070964  -0.024396  -0.010374
    6  C  2  S   -0.000839  -0.047632  -0.148048   0.068525   0.015385
    7  C  2  S    0.001867   0.119360   0.386504  -0.182460  -0.043970
    8  C  2  X    0.000720   0.024415   0.047971  -0.009126  -0.007459
    9  C  2  Y    0.000365  -0.004984  -0.008532   0.019866  -0.061426
   10  C  2  Z   -0.000072  -0.018256  -0.046278   0.036383  -0.045363
   11  C  3  S   -0.002635  -0.035529  -0.096603   0.013478   0.089319
   12  C  3  S    0.006720   0.097764   0.269713  -0.035057  -0.261022
   13  C  3  X    0.002368   0.003827  -0.034552   0.040482  -0.008749
   14  C  3  Y    0.000182  -0.018722  -0.049139   0.018424  -0.002546
   15  C  3  Z   -0.000526  -0.007456  -0.020246   0.015068  -0.003522
   16  C  4  S   -0.021876  -0.073478  -0.012600  -0.107515   0.114699
   17  C  4  S    0.055382   0.197586   0.038142   0.305529  -0.333103
   18  C  4  X    0.013141   0.006855  -0.027703   0.021697  -0.019238
   19  C  4  Y    0.015372  -0.038189  -0.000438  -0.057104  -0.040703
   20  C  4  Z   -0.020716  -0.029111   0.012601   0.000673   0.025853
   21  C  5  S   -0.005109  -0.107779  -0.002468  -0.130023  -0.032595
   22  C  5  S    0.011786   0.273147   0.007268   0.353361   0.085141
   23  C  5  X    0.000023  -0.020344  -0.016362  -0.017160  -0.022772
   24  C  5  Y    0.004780   0.014385   0.005547   0.031429  -0.105062
   25  C  5  Z   -0.001768  -0.067620   0.015294  -0.017224  -0.084378
   26  C  6  S   -0.003600  -0.127468   0.017833  -0.046147  -0.124715
   27  C  6  S    0.008551   0.332556  -0.046942   0.122860   0.350334
   28  C  6  X    0.001539   0.030411  -0.047273   0.010818   0.007712
   29  C  6  Y    0.002881   0.051617  -0.017300  -0.000078  -0.016276
   30  C  6  Z    0.000467   0.023140   0.030366   0.121723   0.012054
   31  C  7  S   -0.006739  -0.111035   0.086026   0.098478  -0.023560
   32  C  7  S    0.016061   0.283957  -0.228322  -0.267981   0.067546
   33  C  7  X    0.001341  -0.012861  -0.019338  -0.033586  -0.051783
   34  C  7  Y    0.006847   0.022641  -0.049713  -0.085436  -0.100286
   35  C  7  Z    0.002716   0.051777  -0.012291   0.027211   0.033423
   36  C  8  S   -0.024650  -0.082916   0.088324   0.116124   0.073889
   37  C  8  S    0.058760   0.210201  -0.231574  -0.311579  -0.201492
   38  C  8  X   -0.005164  -0.027881   0.018320   0.018869   0.007500
   39  C  8  Y    0.014575  -0.055845   0.048518   0.058136  -0.022289
   40  C  8  Z    0.026222   0.019598  -0.007721   0.019196  -0.041270
   41  C  9  S   -0.128071  -0.035447   0.022701  -0.000661   0.078942
   42  C  9  S    0.297784   0.096852  -0.063922   0.001321  -0.229993
   43  C  9  X    0.034491  -0.021710  -0.008453  -0.033477   0.044524
   44  C  9  Y    0.146626  -0.086879   0.044683  -0.003800   0.130969
   45  C  9  Z    0.010221  -0.012264   0.046546   0.107144  -0.010015
   46  O 10  S   -0.213775   0.038771  -0.017002  -0.001180  -0.056781
[...]
 19   H            X -0.02111358 -0.00068363  0.00978713 -0.06839914 -0.01409589
                   Y -0.05211330 -0.00229680  0.01982812 -0.06565391 -0.01042156
                   Z  0.03612022  0.00094240 -0.00283209  0.15694693  0.03394747
 20   H            X  0.00479752  0.00052448  0.00313812 -0.02440579  0.00014089
                   Y  0.01111322 -0.00004927 -0.00188733  0.00240951  0.05795439
                   Z -0.01373909  0.00049960  0.02000368  0.13698506  0.08131901

 TRANS. SAYVETZ    X  0.00000475  0.00000079  0.00000047  0.00000084 -0.00000191
                   Y -0.00000158 -0.00000051 -0.00000124 -0.00000014 -0.00000079
                   Z  0.00000057 -0.00000054  0.00000003 -0.00000031 -0.00000099
               TOTAL  0.00000504  0.00000108  0.00000133  0.00000091  0.00000229

   ROT. SAYVETZ    X  0.00144985 -0.00000088 -0.00291970  0.00042797  0.00022767
                   Y  0.00476756 -0.00363651 -0.00686739  0.00058285 -0.00006292
                   Z -0.00230583 -0.00334783  0.01029502 -0.00168034 -0.00141361
               TOTAL  0.00549077  0.00494289  0.01271507  0.00182932  0.00143320

                           51          52          53          54          55
       FREQUENCY:      3634.24     3638.62     3689.39     3697.19     3698.90  
        SYMMETRY:         A           A           A           A           A   
    REDUCED MASS:      1.06237     1.06453     1.09084     1.09395     1.09617
    IR INTENSITY:      0.02562     0.10537     0.12811     0.07550     0.09880

  1   C            X -0.01189657 -0.00859921  0.00023817 -0.00017269 -0.00109821
                   Y -0.02548768 -0.01659412  0.00205078  0.00028801  0.00163345
                   Z -0.04904968 -0.03326998  0.00601385 -0.00220794  0.01143157
  2   C            X  0.00203895  0.00039363  0.00655972 -0.00586179  0.03359924
                   Y  0.00662675  0.00492973  0.00740072 -0.00693587  0.03850706
                   Z -0.00727124  0.00574768 -0.01209260  0.01049035 -0.06223445
  3   C            X -0.00019350  0.00126918 -0.00080565  0.00104111 -0.00288344
                   Y  0.03639159 -0.05754706 -0.00617829  0.00312004 -0.01051808
                   Z  0.00298352 -0.00379332  0.00106033  0.00029194  0.00340784
  4   C            X -0.00052652 -0.00051349 -0.00752726 -0.00726502  0.00054074
                   Y -0.00096173  0.00119764 -0.02074484 -0.02130690  0.00304877
                   Z -0.00332735  0.00049513 -0.05282707 -0.04758441  0.00599095
  5   C            X -0.00054619  0.00005248 -0.00543586  0.00138721  0.00033189
                   Y -0.00231180  0.00004234 -0.02478839  0.00879144  0.00203623
                   Z  0.00297994 -0.00102573  0.03535708 -0.00353035 -0.00188669
  6   C            X  0.00010966  0.00078473 -0.00006212  0.00050950 -0.00029162
                   Y  0.00334572 -0.00076670  0.03613256 -0.05609039 -0.01828022
                   Z  0.00044220  0.00074997  0.00347665 -0.00865426 -0.00346960
  7   C            X  0.00043822  0.00012612  0.00002805 -0.00069758 -0.00042371
                   Y -0.00045095  0.00008775 -0.00531895  0.01374881  0.00615035
                   Z -0.00045198  0.00005237 -0.00773157  0.02195683  0.01030448
  8   C            X -0.00016802  0.00009798 -0.00174996  0.00534186  0.00234656
                   Y -0.00032347  0.00015942 -0.00179487  0.00603889  0.00265499
                   Z  0.00045362 -0.00008348  0.00365069 -0.01133775 -0.00506388
  9   C            X  0.00023593 -0.00023804 -0.00053254 -0.00075315  0.00002097
                   Y -0.00021657  0.00000594 -0.00046667 -0.00061064  0.00005272
                   Z  0.00024818 -0.00003557  0.00110161  0.00193848  0.00011561
 10   O            X -0.00000474 -0.00001286  0.00001914  0.00010250 -0.00001439
                   Y  0.00002127  0.00002244  0.00003010  0.00017059 -0.00000468
                   Z -0.00001819 -0.00001172 -0.00007179 -0.00019667 -0.00001630
 11   H            X -0.07734931 -0.05045138  0.01033439 -0.00322533  0.01297236
                   Y -0.26104905 -0.17463254  0.02737149 -0.01153205  0.04726495
                   Z  0.48059735  0.32229511 -0.05042456  0.02034043 -0.08184067
 12   H            X  0.22697615  0.14982734 -0.01612576  0.00329575 -0.01403965
                   Y  0.52729845  0.34893264 -0.04218524  0.00891129 -0.03713270
                   Z  0.05232738  0.03421891 -0.00425149  0.00117842 -0.00429133
 13   H            X -0.06134231  0.01264810 -0.06724468  0.06069235 -0.35327255
                   Y -0.07635554  0.01764095 -0.08408901  0.07537608 -0.43870032
                   Z  0.12315598 -0.02318820  0.13447847 -0.12065155  0.70223247
 14   H            X  0.08590858 -0.13247097 -0.00802373  0.00293505 -0.00611466
                   Y -0.17579928  0.27114763  0.01980900 -0.00793190  0.01687582
                   Z -0.30951676  0.47861390  0.03539509 -0.01448692  0.02885694
 15   H            X -0.06735590  0.10387342  0.01356923 -0.00451260  0.01655665
                   Y -0.22225867  0.34932429  0.03695526 -0.01352399  0.05660775
                   Z  0.28443094 -0.44494301 -0.04797257  0.01783037 -0.07605616
 16   H            X  0.00806069 -0.00117707  0.09727672  0.08736122 -0.01022519
                   Y  0.01480996 -0.00210532  0.24232593  0.22072613 -0.02777622
                   Z  0.03834089 -0.00538223  0.59653700  0.53887689 -0.06720645
 17   H            X  0.00582975 -0.00126048  0.05939959 -0.01104909 -0.00440299
                   Y  0.02670755 -0.00578143  0.29965224 -0.05523239 -0.02173041
                   Z -0.03630784  0.00799284 -0.40533187  0.07209157  0.02917342
 18   H            X  0.00246987 -0.00103771  0.00769881 -0.01117459 -0.00272600
                   Y -0.03936111  0.01261317 -0.41307101  0.63581040  0.20516765
                   Z -0.00479657  0.00138513 -0.05327449  0.08385026  0.02757647
 19   H            X -0.00044591  0.00002759 -0.00544161  0.01605522  0.00731554
                   Y  0.00407269 -0.00085618  0.05039096 -0.13896351 -0.06388238
                   Z  0.00849714 -0.00114246  0.09478061 -0.26116744 -0.12017887
 20   H            X  0.00244103 -0.00087085  0.01883685 -0.06496044 -0.02854962
                   Y  0.00380262 -0.00119934  0.02558061 -0.08580214 -0.03768773
                   Z -0.00546487  0.00138795 -0.03695323  0.12530563  0.05498429

 TRANS. SAYVETZ    X -0.00000002  0.00000184 -0.00000043  0.00000070 -0.00000033
                   Y -0.00000020  0.00000014 -0.00000026 -0.00000008 -0.00000030
                   Z -0.00000131  0.00000037  0.00000021  0.00000078 -0.00000059
               TOTAL  0.00000132  0.00000188  0.00000054  0.00000105  0.00000074

   ROT. SAYVETZ    X  0.00001296 -0.00025857  0.00015074  0.00029579  0.00000472
                   Y -0.00038496 -0.00041595  0.00057356  0.00061051  0.00006872
                   Z -0.00008397  0.00091398  0.00012709 -0.00086194 -0.00007440
               TOTAL  0.00039423  0.00103694  0.00060651  0.00109689  0.00010139

                           56          57          58          59          60
       FREQUENCY:      3704.96     3715.79     3736.11     3785.64     3787.45  
        SYMMETRY:         A           A           A           A           A   
    REDUCED MASS:      1.09177     1.10089     1.10599     1.11703     1.11744
    IR INTENSITY:      0.49659     0.07571     0.06440     0.00067     0.01689

  1   C            X -0.00010844 -0.00010711  0.00006684 -0.02495442  0.01515636
                   Y  0.00087369 -0.00129832  0.00028686 -0.06665381  0.04051106
                   Z  0.00065761  0.00098867 -0.00019944  0.03809216 -0.02248650
  2   C            X  0.00319862  0.00302651 -0.00005439 -0.00038049  0.00244411
                   Y  0.00340337  0.00314886 -0.00005223  0.00029040  0.00266528
                   Z -0.00589217 -0.00512679  0.00005811  0.00136773 -0.00379262
  3   C            X  0.00005760 -0.00003365  0.00003252  0.01176528  0.01953695
                   Y -0.00051545 -0.00048840  0.00020493  0.00330478  0.00464627
                   Z  0.00058934  0.00142575 -0.00022987 -0.04717803 -0.07819788
  4   C            X -0.00218484 -0.00361852  0.00025603 -0.00001307 -0.00037021
                   Y -0.00691466 -0.01511767  0.00135939 -0.00019118 -0.00030012
                   Z -0.01367295 -0.02555624  0.00263631  0.00000942 -0.00035810
  5   C            X  0.00195581  0.00552688 -0.00048011 -0.00001705  0.00002007
                   Y  0.01255302  0.04142086 -0.00344352 -0.00001861  0.00040953
                   Z -0.01343333 -0.05641625  0.00471976  0.00028197 -0.00057024
  6   C            X -0.00052983  0.00097617 -0.00076922  0.00013745 -0.00024531
                   Y -0.02589586  0.03959700 -0.00672533 -0.00022580  0.00063440
                   Z -0.00111742  0.00939732  0.00027217 -0.00030020  0.00024671
  7   C            X  0.00395608 -0.00106285  0.00000170 -0.00019116  0.00017164
                   Y -0.02919581  0.00000777 -0.02924871 -0.00019629  0.00029326
                   Z -0.05660760  0.00422210 -0.04042485 -0.00041073  0.00038482
  8   C            X -0.01542897  0.00468403  0.02985563 -0.00008291  0.00007462
                   Y -0.01825464  0.00647253  0.04413949 -0.00003089 -0.00014882
                   Z  0.03221069 -0.00865399 -0.05147900  0.00002425 -0.00002308
  9   C            X  0.00023067 -0.00049679 -0.00011736  0.00008916  0.00014992
                   Y -0.00025568 -0.00058163  0.00116770  0.00002171 -0.00006287
                   Z -0.00129845  0.00098599  0.00208170  0.00006590  0.00006374
 10   O            X -0.00006376  0.00007203 -0.00004438  0.00001171  0.00002281
                   Y -0.00005061  0.00015274 -0.00027314 -0.00001271 -0.00001482
                   Z  0.00015442 -0.00007165 -0.00021615 -0.00000440  0.00000621
 11   H            X -0.00000036  0.00176294 -0.00015769  0.07618080 -0.04592693
                   Y  0.00198092  0.00667490 -0.00196007  0.27195563 -0.16244878
                   Z -0.00329171 -0.01103326  0.00301417 -0.50585101  0.30266528
 12   H            X -0.00260228  0.00228652 -0.00081100  0.22156988 -0.13432890
                   Y -0.00679026  0.00603305 -0.00163259  0.51108057 -0.30961130
                   Z -0.00069444  0.00057361 -0.00007618  0.05410090 -0.03231519
 13   H            X -0.03321892 -0.02961988  0.00026514  0.00542390 -0.02685686
                   Y -0.04110481 -0.03679872  0.00048510  0.00332321 -0.03145568
                   Z  0.06569480  0.05891755 -0.00060384 -0.01332750  0.04891966
 14   H            X -0.00026249  0.00100247  0.00003354 -0.08161833 -0.13585049
                   Y  0.00013432 -0.00273680  0.00000581  0.16862194  0.27940965
                   Z  0.00027707 -0.00482097 -0.00010466  0.29199471  0.48507162
 15   H            X  0.00123133  0.00207498 -0.00088272 -0.05984463 -0.09899269
                   Y  0.00394834  0.00715780 -0.00190085 -0.20876222 -0.34276367
                   Z -0.00575081 -0.01004293  0.00264107  0.26388623  0.43297658
 16   H            X  0.02488401  0.04591228 -0.00420455  0.00076830  0.00198314
                   Y  0.06309514  0.11887277 -0.01061434  0.00132560  0.00348742
                   Z  0.15471154  0.28675440 -0.02557465  0.00308754  0.00863810
 17   H            X -0.02350371 -0.08635170  0.00651408  0.00026290 -0.00094979
                   Y -0.12478508 -0.45334634  0.03600074  0.00125944 -0.00445661
                   Z  0.16651392  0.61239046 -0.04815088 -0.00192329  0.00596106
 18   H            X -0.00431392  0.00608795 -0.00038696 -0.00070103  0.00051437
                   Y  0.28697868 -0.42945703  0.06691249  0.00711269 -0.00901669
                   Z  0.03560675 -0.05794469  0.00787503  0.00093954 -0.00111713
 19   H            X -0.04243342  0.00329211 -0.02910932 -0.00031536  0.00038803
                   Y  0.33657267 -0.01919472  0.23915275  0.00224404 -0.00226242
                   Z  0.63886218 -0.03875331  0.44926426  0.00366803 -0.00379106
 20   H            X  0.18664552 -0.05349867 -0.31337311  0.00058270 -0.00015825
                   Y  0.24521625 -0.07074418 -0.41366139  0.00050205  0.00011001
                   Z -0.35706613  0.10256238  0.59823503 -0.00068487 -0.00006772

 TRANS. SAYVETZ    X -0.00000080 -0.00000050  0.00000022 -0.00000000 -0.00000015
                   Y  0.00000030  0.00000001 -0.00000054 -0.00000002  0.00000003
                   Z -0.00000080  0.00000061  0.00000013  0.00000004  0.00000008
               TOTAL  0.00000117  0.00000078  0.00000059  0.00000005  0.00000017

   ROT. SAYVETZ    X  0.00007671  0.00003157 -0.00000489 -0.00008876 -0.00015830
                   Y  0.00017941  0.00025519 -0.00003732 -0.00020429 -0.00112368
                   Z -0.00035264  0.00027163 -0.00005866  0.00063215 -0.00048473
               TOTAL  0.00040302  0.00037403  0.00006970  0.00067025  0.00123397

 REFERENCE ON SAYVETZ CONDITIONS - A. SAYVETZ, J.CHEM.PHYS., 7, 383-389(1939).

 NOTE - THE MODES J,K ARE ORTHONORMALIZED ACCORDING TO
 SUM ON I   M(I) * (X(I,J)*X(I,K) + Y(I,J)*Y(I,K) + Z(I,J)*Z(I,K)) = DELTA(J,K)

  MODE FREQ(CM**-1)  SYMMETRY  RED. MASS  IR INTENS.
     1    1104.428    A        9.338607    0.024788
     2       2.286    A        4.788082    0.014711
     3       0.011    A        6.703457    0.000000
     4       0.003    A        6.704080    0.000000
     5       0.026    A        6.737069    0.000002
     6      30.042    A        5.904962    0.016292
     7      36.756    A        4.149105    0.001118
     8     110.784    A        4.128423    0.027999
     9     202.404    A        3.551565    0.015115
    10     257.711    A        4.162592    0.029670
    11     373.624    A        5.304568    0.031327
    12     409.781    A        5.706457    0.167923
    13     455.992    A        1.989235    0.060133
    14     487.065    A        3.522640    0.073004
    15     497.119    A        4.525734    0.137443
    16     536.762    A        1.988456    0.232550
    17     570.831    A        2.524010    0.188356
    18     603.774    A        5.427901    0.018066
    19     674.683    A        5.936431    0.036558
    20     837.020    A        3.391171    0.044385
    21     852.811    A        4.076440    0.044352
    22     924.719    A        1.632292    1.208176
    23     935.514    A        1.775706    0.151740
    24     971.031    A        1.614818    0.881748
    25     995.084    A        1.366238    0.225094
    26    1023.776    A        1.420057    0.043922
    27    1084.987    A        1.837844    0.188887
    28    1122.391    A        2.885686    0.002645
    29    1171.511    A        1.974971    0.073483
    30    1201.680    A        1.124726    0.032826
    31    1209.639    A        1.271984    0.004255
    32    1228.721    A        1.505104    0.137427
    33    1260.369    A        1.270809    0.226065
    34    1278.540    A        1.150261    0.414472
    35    1305.294    A        1.232612    0.016706
    36    1328.588    A        1.261434    0.107185
    37    1355.662    A        1.267426    0.029807
    38    1358.631    A        1.122798    0.019634
    39    1419.225    A        1.832379    0.645771
    40    1471.273    A        1.331171    0.101324
    41    1484.770    A        1.781078    0.004768
    42    1600.455    A        1.603792    0.151522
    43    1639.580    A        1.714633    0.150633
    44    1668.182    A        1.506920    0.060144
    45    1726.994    A        2.571289    0.328647
    46    1758.499    A        1.889158    0.049744
    47    1811.410    A        1.277140    0.197213
    48    1863.009    A        2.586212    0.054636
    49    2004.975    A        7.009544    0.061588
    50    2075.479    A       10.554399    1.843518
    51    3634.239    A        1.062366    0.025616
    52    3638.616    A        1.064534    0.105370
    53    3689.392    A        1.090840    0.128113
    54    3697.186    A        1.093952    0.075503
    55    3698.896    A        1.096170    0.098800
    56    3704.959    A        1.091772    0.496593
    57    3715.786    A        1.100890    0.075708
    58    3736.110    A        1.105990    0.064397
    59    3785.644    A        1.117034    0.000665
    60    3787.445    A        1.117437    0.016894

     -------------------------------
     THERMOCHEMISTRY AT T=  298.15 K
     -------------------------------

 USING IDEAL GAS, RIGID ROTOR, HARMONIC NORMAL MODE APPROXIMATIONS.
 P=  1.01325E+05 PASCAL.
 ALL FREQUENCIES ARE SCALED BY   1.00000
 THE MOMENTS OF INERTIA ARE (IN AMU*BOHR**2)
            865.47217          1321.78414          1661.06764
 THE ROTATIONAL SYMMETRY NUMBER IS  1.0
 THE ROTATIONAL CONSTANTS ARE (IN GHZ)
      2.08336     1.36413     1.08550
   1 IMAGINARY FREQUENCY VIBRATION(S) IS(ARE) EXCLUDED
     FROM THE FOLLOWING THERMOCHEMICAL ANALYSIS.
      8 -     60 VIBRATIONAL MODES ARE USED IN THERMOCHEMISTRY.
 THE HARMONIC ZERO POINT ENERGY IS (SCALED BY   1.000)
        0.191910 HARTREE/MOLECULE    42119.310777 CM**-1/MOLECULE 
      120.425273 KCAL/MOL              503.859344 KJ/MOL

               Q               LN Q
 ELEC.     1.00000E+00       0.000000
 TRANS.    6.10192E+07      17.926699
 ROT.      4.93449E+05      13.109174
 VIB.      1.47865E+01       2.693713
 TOT.      4.45218E+14      33.729586

              E         H         G         CV        CP        S
           KJ/MOL    KJ/MOL    KJ/MOL   J/MOL-K   J/MOL-K   J/MOL-K
 ELEC.      0.000     0.000     0.000     0.000     0.000     0.000
 TRANS.     3.718     6.197   -44.439    12.472    20.786   169.836
 ROT.       3.718     3.718   -32.497    12.472    12.472   121.467
 VIB.     515.180   515.180   497.182    94.232    94.232    60.368
 TOTAL    522.617   525.096   420.246   119.176   127.490   351.670
 VIB. THERMAL CORRECTION E(T)-E(0) = H(T)-H(0) =     11321.124 J/MOL

              E         H         G         CV        CP        S
         KCAL/MOL  KCAL/MOL  KCAL/MOL CAL/MOL-K CAL/MOL-K CAL/MOL-K
 ELEC.      0.000     0.000     0.000     0.000     0.000     0.000
 TRANS.     0.889     1.481   -10.621     2.981     4.968    40.592
 ROT.       0.889     0.889    -7.767     2.981     2.981    29.031
 VIB.     123.131   123.131   118.829    22.522    22.522    14.428
 TOTAL    124.909   125.501   100.441    28.484    30.471    84.051
 VIB. THERMAL CORRECTION E(T)-E(0) = H(T)-H(0) =      2705.814 CAL/MOL

     *******************************************************
     * THIS IS NOT A STATIONARY POINT ON THE MOLECULAR PES *
     *     THE VIBRATIONAL ANALYSIS IS NOT VALID !!!       *
     *******************************************************
 ......END OF NORMAL COORDINATE ANALYSIS......
 STEP CPU TIME =     0.01 TOTAL CPU TIME =        144.8 (      2.4 MIN)
 TOTAL WALL CLOCK TIME=        145.6 SECONDS, CPU UTILIZATION IS    99.45%
               580000  WORDS OF DYNAMIC MEMORY USED
 EXECUTION OF GAMESS TERMINATED NORMALLY Sun Nov 14 20:39:34 2021
 DDI: 263640 bytes (0.3 MB / 0 MWords) used by master data server.

 ----------------------------------------
 CPU timing information for all processes
 ========================================
 0: 142.480 + 2.292 = 144.773
 ----------------------------------------
 ddikick.x: exited gracefully.
----- accounting info -----
Files used on the master node chemcompute-node-0.novalocal were:
-rw-r--r--. 1 chemcomp chemcomp     1276 Nov 14 20:37 /scratch/306503/342514.F05
-rw-rw-r--. 1 chemcomp chemcomp 18001600 Nov 14 20:39 /scratch/306503/342514.F08
-rw-rw-r--. 1 chemcomp chemcomp 85196800 Nov 14 20:39 /scratch/306503/342514.F10
-rw-rw-r--. 1 chemcomp chemcomp   878880 Nov 14 20:39 /scratch/306503/342514.F18
Sun Nov 14 20:39:38 UTC 2021
0.171u 0.115s 2:29.46 0.1%	0+0k 8+216io 0pf+0w
Finishing Up...
Looking for IR data...
Looking for Raman data...
vibramans not found
Looking for thermodynamics data...
Looking for UV-Vis data...
306503
