----- GAMESS execution script 'rungms' -----
This job is running on host chemcompute-node-0.novalocal
under operating system Linux at Sun Nov 14 21:05:47 UTC 2021
SLURM has assigned the following compute nodes to this run:
chemcompute-node-0
Available scratch disk space (Kbyte units) at beginning of the job is
Filesystem     1K-blocks     Used Available Use% Mounted on
/dev/sda1       62903276 16771112  46132164  27% /
GAMESS temporary binary files will be written to /scratch/306507
GAMESS supplementary output files will be written to /data/slurm/342518
Copying input file 342518.inp to your run's scratch directory...
The generated host list is
chemcompute-node-0.novalocal

 Distributed Data Interface kickoff program.
 Initiating 1 compute processes on 1 nodes to run the following command:
 /data/gamess-2019R1-ddi/gamess.00.x 342518 

          ******************************************************
          *         GAMESS VERSION = 30 JUN 2019 (R1)          *
          *             FROM IOWA STATE UNIVERSITY             *
          * M.W.SCHMIDT, K.K.BALDRIDGE, J.A.BOATZ, S.T.ELBERT, *
          *   M.S.GORDON, J.H.JENSEN, S.KOSEKI, N.MATSUNAGA,   *
          *          K.A.NGUYEN, S.J.SU, T.L.WINDUS,           *
          *       TOGETHER WITH M.DUPUIS, J.A.MONTGOMERY       *
          *         J.COMPUT.CHEM.  14, 1347-1363(1993)        *
          **************** 64 BIT LINUX VERSION ****************

  SINCE 1993, STUDENTS AND POSTDOCS WORKING AT IOWA STATE UNIVERSITY
  AND ALSO IN THEIR VARIOUS JOBS AFTER LEAVING ISU HAVE MADE IMPORTANT
  CONTRIBUTIONS TO THE CODE:
     IVANA ADAMOVIC, CHRISTINE AIKENS, YURI ALEXEEV, POOJA ARORA,
     ANDREY ASADCHEV, ROB BELL, PRADIPTA BANDYOPADHYAY, JONATHAN BENTZ,
     COLLEEN BERTONI, BRETT BODE, KURT BRORSEN, CALEB CARLIN, GALINA CHABAN,
     WEI CHEN, CHEOL HO CHOI, PAUL DAY, ALBERT DEFUSCO, NUWAN DESILVA,
     TIM DUDLEY, DMITRI FEDOROV, ALEX FINDLATER, GRAHAM FLETCHER, 
     MARK FREITAG, KURT GLAESEMANN, ANASTASIA GUNINA,
     DAN KEMP, GRANT MERRILL, NORIYUKI MINEZAWA, JONATHAN MULLIN,
     TAKESHI NAGATA, SEAN NEDD, HEATHER NETZLOFF, BOSILJKA NJEGIC, RYAN OLSON,
     MIKE PAK, BUU PHAM,
     SPENCER PRUITT, LUKE ROSKOP, JIM SHOEMAKER, LYUDMILA SLIPCHENKO,
     TONY SMITH, SAROM SOK LEANG, JIE SONG, TETSUYA TAKETSUGU, SIMON WEBB,
     PENG XU, SOOHAENG YOO, FEDERICO ZAHARIEV

  ADDITIONAL CODE HAS BEEN PROVIDED BY COLLABORATORS IN OTHER GROUPS:
     IOWA STATE UNIVERSITY:
          JOE IVANIC, AARON WEST, LAIMUTIS BYTAUTAS, KLAUS RUEDENBERG
     UNIVERSITY OF TOKYO: KIMIHIKO HIRAO, TAKAHITO NAKAJIMA,
          TAKAO TSUNEDA, MUNEAKI KAMIYA, SUSUMU YANAGISAWA,
          KIYOSHI YAGI, MAHITO CHIBA, SEIKEN TOKURA, NAOAKI KAWAKAMI
     UNIVERSITY OF AARHUS: FRANK JENSEN
     UNIVERSITY OF IOWA: VISVALDAS KAIRYS, HUI LI
     NATIONAL INST. OF STANDARDS AND TECHNOLOGY: WALT STEVENS, DAVID GARMER
     UNIVERSITY OF PISA: BENEDETTA MENNUCCI, JACOPO TOMASI
     UNIVERSITY OF MEMPHIS: HENRY KURTZ, PRAKASHAN KORAMBATH
     UNIVERSITY OF ALBERTA: TOBY ZENG, MARIUSZ KLOBUKOWSKI
     UNIVERSITY OF NEW ENGLAND: MARK SPACKMAN
     MIE UNIVERSITY: HIROAKI UMEDA
     NAT. INST. OF ADVANCED INDUSTRIAL SCIENCE AND TECHNOLOGY: KAZUO KITAURA
     MICHIGAN STATE UNIVERSITY:
          KAROL KOWALSKI, MARTA WLOCH, JEFFREY GOUR, JESSE LUTZ,
          WEI LI, JUN SHEN, J. EMILIANO DEUSTUA, PIOTR PIECUCH
     UNIVERSITY OF MINNESOTA:
          YINAN SHU
     UNIVERSITY OF SILESIA: MONIKA MUSIAL, STANISLAW KUCHARSKI
     FACULTES UNIVERSITAIRES NOTRE-DAME DE LA PAIX:
          OLIVIER QUINET, BENOIT CHAMPAGNE
     UNIVERSITY OF CALIFORNIA - SANTA BARBARA: BERNARD KIRTMAN
     INSTITUTE FOR MOLECULAR SCIENCE:
          KAZUYA ISHIMURA, MICHIO KATOUDA, AND SHIGERU NAGASE
     UNIVERSITY OF NOTRE DAME: ANNA POMOGAEVA, DAN CHIPMAN
     KYUSHU UNIVERSITY:
          HARUYUKI NAKANO,
          FENG LONG GU, JACEK KORCHOWIEC, MARCIN MAKOWSKI, AND YURIKO AOKI,
          HIROTOSHI MORI AND EISAKU MIYOSHI
     PENNSYLVANIA STATE UNIVERSITY:
          TZVETELIN IORDANOV, CHET SWALINA, JONATHAN SKONE,
          SHARON HAMMES-SCHIFFER
     WASEDA UNIVERSITY:
          MASATO KOBAYASHI, TOMOKO AKAMA, TSUGUKI TOUMA,
          TAKESHI YOSHIKAWA, YASUHIRO IKABATA, JUNJI SEINO,
          YUYA NAKAJIMA, HIROMI NAKAI
     NANJING UNIVERSITY: SHUHUA LI
     UNIVERSITY OF NEBRASKA:
          PEIFENG SU, DEJUN SI, NANDUN THELLAMUREGE, YALI WANG, HUI LI
     UNIVERSITY OF ZURICH: ROBERTO PEVERATI, KIM BALDRIDGE
     N. COPERNICUS UNIVERSITY AND JACKSON STATE UNIVERSITY:
          MARIA BARYSZ
     UNIVERSITY OF COPENHAGEN: Jimmy Kromann, CASPER STEINMANN
     TOKYO INSTITUTE OF TECHNOLOGY: HIROYA NAKATA
     NAGOYA UNIVERSITY: YOSHIO NISHIMOTO, STEPHAN IRLE
     MOSCOW STATE UNIVERSITY: VLADIMIR MIRONOV
     A.N.NESMEYANOV INSTITUTE OF ORGANOELEMENT COMPOUNDS OF RUSSIAN ACADEMY OF SCIENCES:
          IGOR S. GERASIMOV

 EXECUTION OF GAMESS BEGUN Sun Nov 14 21:05:47 2021

            ECHO OF THE FIRST FEW INPUT CARDS -
 INPUT CARD> $BASIS GBASIS=STO NGAUSS=3 $END                                                
 INPUT CARD> $CONTRL SCFTYP=RHF RUNTYP=SADPOINT NZVAR=1 mult=1  ICHARG=0 $END               
 INPUT CARD> $STATPT hssend=.t. OPTTOL=0.0005 NSTEP=50 $END                                 
 INPUT CARD> $STATPT HESS=calc ihrep=5 $END                                                 
 INPUT CARD> $FORCE nvib=2 $END                                                             
 INPUT CARD> $ZMAT DLC=.t. auto=.t. nonvdw(1)=4,3,6,1,6,5,1,2,2,3,5,4 $END                  
 INPUT CARD>!$ZMAT IFZMAT(1)=1,4,3,1,6,1 fvalue(1)=2.00,2.00 $END                           
 INPUT CARD>                                                                                
 INPUT CARD> $DATA                                                                          
 INPUT CARD>Title                                                                           
 INPUT CARD>C1                                                                              
 INPUT CARD>C     6.0    -3.15322232    -0.89250511    -0.35539830                          
 INPUT CARD>C     6.0    -3.54648113    -0.12435293     0.74680746                          
 INPUT CARD>C     6.0    -2.89914370     1.08805716     1.01168561                          
 INPUT CARD>C     6.0    -0.97840166     0.63142014     1.33142364                          
 INPUT CARD>C     6.0    -0.90068924    -0.75701433     1.16814601                          
 INPUT CARD>C     6.0    -1.20380354    -1.26245201    -0.10458776                          
 INPUT CARD>C     6.0    -0.64854425    -0.46887267    -1.25907123                          
 INPUT CARD>C     6.0    -0.25318393     0.78015709    -1.11777651                          
 INPUT CARD>C     6.0    -0.35947704     1.48445261     0.21528471                          
 INPUT CARD>O     8.0     0.00965325     2.63760591     0.39341846                          
 INPUT CARD>H     1.0    -3.02967739    -0.38412842    -1.30383182                          
 INPUT CARD>H     1.0    -3.59006405    -1.87984717    -0.46364629                          
 INPUT CARD>H     1.0    -3.96716261    -0.65393335     1.59378433                          
 INPUT CARD>H     1.0    -3.16197515     1.61789572     1.92100370                          
 INPUT CARD>H     1.0    -2.72702312     1.75547934     0.17559639                          
 INPUT CARD>H     1.0    -0.80633706     1.03668547     2.32438040                          
 INPUT CARD>H     1.0    -1.02822733    -1.39737046     2.03240371                          
 INPUT CARD>H     1.0    -1.17487574    -2.33874202    -0.24423860                          
 INPUT CARD>H     1.0    -0.58553714    -0.97319353    -2.21718359                          
 INPUT CARD>H     1.0     0.17519517     1.34531403    -1.93507898                          
 INPUT CARD> $END                                                                           
    1000000 WORDS OF MEMORY AVAILABLE

     BASIS OPTIONS
     -------------
     GBASIS=STO          IGAUSS=       3      POLAR=NONE    
     NDFUNC=       0     NFFUNC=       0     DIFFSP=       F
     NPFUNC=       0      DIFFS=       F     BASNAM=        


     RUN TITLE
     ---------
 Title                                                                           

 THE POINT GROUP OF THE MOLECULE IS C1      
 THE ORDER OF THE PRINCIPAL AXIS IS     0

 ATOM      ATOMIC                      COORDINATES (BOHR)
           CHARGE         X                   Y                   Z
 C           6.0    -5.9587261632       -1.6865901005       -0.6716054035
 C           6.0    -6.7018775563       -0.2349929635        1.4112614650
 C           6.0    -5.4785871920        2.0561298914        1.9118085886
 C           6.0    -1.8489110433        1.1932110477        2.5160258532
 C           6.0    -1.7020558637       -1.4305496525        2.2074758726
 C           6.0    -2.2748588336       -2.3856883715       -0.1976422081
 C           6.0    -1.2255709234       -0.8860408694       -2.3792996237
 C           6.0    -0.4784482522        1.4742831275       -2.1122913194
 C           6.0    -0.6793131045        2.8052086747        0.4068291112
 O           8.0     0.0182419974        4.9843524335        0.7434530879
 H           1.0    -5.7252600983       -0.7258974579       -2.4638848739
 H           1.0    -6.7842373329       -3.5523960501       -0.8761644433
 H           1.0    -7.4968502816       -1.2357548457        3.0118156672
 H           1.0    -5.9752666135        3.0573795875        3.6301706144
 H           1.0    -5.1533264590        3.3173749297        0.3318290615
 H           1.0    -1.5237560971        1.9590514738        4.3924420472
 H           1.0    -1.9430679068       -2.6406472727        3.8406861083
 H           1.0    -2.2201932182       -4.4195815738       -0.4615440296
 H           1.0    -1.1065047502       -1.8390691047       -4.1898694496
 H           1.0     0.3310708657        2.5422748841       -3.6567690368

          INTERNUCLEAR DISTANCES (ANGS.)
          ------------------------------

                1 C          2 C          3 C          4 C          5 C     

   1 C       0.0000000    1.3998456 *  2.4199383 *  3.1460390    2.7227652 *
   2 C       1.3998456 *  0.0000000    1.3996944 *  2.7400732 *  2.7528170 *
   3 C       2.4199383 *  1.3996944 *  0.0000000    1.9999999 *  2.7244429 *
   4 C       3.1460390    2.7400732 *  1.9999999 *  0.0000000    1.4001604 *
   5 C       2.7227652 *  2.7528170 *  2.7244429 *  1.4001604 *  0.0000000  
   6 C       2.0000001 *  2.7401244 *  3.1056622    2.3874016 *  1.4025679 *
   7 C       2.6962013 *  3.5412260    3.5560603    2.8337456 *  2.4572314 *
   8 C       3.4335466    3.8910947    3.4103540    2.5586412 *  2.8297705 *
   9 C       3.7122257    3.6093998    2.6909646 *  1.5350890 *  2.4950009 *
  10 O       4.7985615    4.5165686    3.3532753    2.4250541 *  3.5989405  
  11 H       1.0831604 *  2.1306550 *  2.7469966 *  3.4905075    3.2836426  
  12 H       1.0850773 *  2.1328051 *  3.3856213    4.0434540    3.3400953  
  13 H       2.1257300 *  1.0838811 *  2.1246257 *  3.2639943    3.0975882  
  14 H       3.3888339    2.1358867 *  1.0847436 *  2.4675356 *  3.3645812  
  15 H       2.7341219 *  2.1287468 *  1.0835696 *  2.3784707 *  3.2608702  
  16 H       4.0510320    3.3682542    2.4709606 *  1.0861903 *  2.1361506 *
  17 H       3.2360611    3.1007956    3.2740715    2.1470554 *  1.0831728 *
  18 H       2.4531231 *  3.3926691    4.0365082    3.3679633    2.1381934 *
  19 H       3.1726585    4.2746886    4.4751677    3.9142995    3.4068330  
  20 H       4.3106367    4.8169815    4.2662820    3.5370142    3.8996560  

                6 C          7 C          8 C          9 C         10 O     

   1 C       2.0000001 *  2.6962013 *  3.4335466    3.7122257    4.7985615  
   2 C       2.7401244 *  3.5412260    3.8910947    3.6093998    4.5165686  
   3 C       3.1056622    3.5560603    3.4103540    2.6909646 *  3.3532753  
   4 C       2.3874016 *  2.8337456 *  2.5586412 *  1.5350890 *  2.4250541 *
   5 C       1.4025679 *  2.4572314 *  2.8297705 *  2.4950009 *  3.5989405  
   6 C       0.0000000    1.5069549 *  2.4703200 *  2.8914859 *  4.1147223  
   7 C       1.5069549 *  0.0000000    1.3177061 *  2.4642981 *  3.5796865  
   8 C       2.4703200 *  1.3177061 *  0.0000000    1.5114174 *  2.4089229 *
   9 C       2.8914859 *  2.4642981 *  1.5114174 *  0.0000000    1.2238265 *
  10 O       4.1147223    3.5796865    2.4089229 *  1.2238265 *  0.0000000  
  11 H       2.3544541 *  2.3830611 *  3.0164703    3.5957308    4.6096711  
  12 H       2.4908511 *  3.3579888    4.3172072    4.7134014    5.8395126  
  13 H       3.3001388    4.3802123    4.8169301    4.4145612    5.3000163  
  14 H       4.0291264    4.5590365    4.2891791    3.2834860    3.6650446  
  15 H       3.3921395    3.3654253    2.9570166 *  2.3833391 *  2.8835727 *
  16 H       3.3680705    3.8900809    3.4957445    2.2019228 *  2.6376885 *
  17 H       2.1484326 *  3.4409410    3.9071670    3.4718947    4.4771088  
  18 H       1.0856976 *  2.1916481 *  3.3675089    3.9360963    5.1549737  
  19 H       2.2201317 *  1.0845684 *  2.0960422 *  3.4652604    4.4952605  
  20 H       3.4717113    2.1039977 *  1.0820787 *  2.2202022 *  2.6682059 *

               11 H         12 H         13 H         14 H         15 H     

   1 C       1.0831604 *  1.0850773 *  2.1257300 *  3.3888339    2.7341219 *
   2 C       2.1306550 *  2.1328051 *  1.0838811 *  2.1358867 *  2.1287468 *
   3 C       2.7469966 *  3.3856213    2.1246257 *  1.0847436 *  1.0835696 *
   4 C       3.4905075    4.0434540    3.2639943    2.4675356 *  2.3784707 *
   5 C       3.2836426    3.3400953    3.0975882    3.3645812    3.2608702  
   6 C       2.3544541 *  2.4908511 *  3.3001388    4.0291264    3.3921395  
   7 C       2.3830611 *  3.3579888    4.3802123    4.5590365    3.3654253  
   8 C       3.0164703    4.3172072    4.8169301    4.2891791    2.9570166 *
   9 C       3.5957308    4.7134014    4.4145612    3.2834860    2.3833391 *
  10 O       4.6096711    5.8395126    5.3000163    3.6650446    2.8835727 *
  11 H       0.0000000    1.8047492 *  3.0574258    3.7980479    2.6188220 *
  12 H       1.8047492 *  0.0000000    2.4244770 *  4.2548820    3.7906556  
  13 H       3.0574258    2.4244770 *  0.0000000    2.4324076 *  3.0585082  
  14 H       3.7980479    4.2548820    2.4324076 *  0.0000000    1.8040397 *
  15 H       2.6188220 *  3.7906556    3.0585082    1.8040397 *  0.0000000  
  16 H       4.4861875    4.9018763    3.6582483    2.4595831 *  2.9703488 *
  17 H       4.0203146    3.6091629    3.0630746    3.6955541    4.0341173  
  18 H       2.8954346 *  2.4681691 *  3.7434976    4.9286733    4.3986443  
  19 H       2.6748889 *  3.5950099    5.1049774    5.5205408    4.2139072  
  20 H       3.6960320    5.1714559    5.7973265    5.1068954    3.6119326  

               16 H         17 H         18 H         19 H         20 H     

   1 C       4.0510320    3.2360611    2.4531231 *  3.1726585    4.3106367  
   2 C       3.3682542    3.1007956    3.3926691    4.2746886    4.8169815  
   3 C       2.4709606 *  3.2740715    4.0365082    4.4751677    4.2662820  
   4 C       1.0861903 *  2.1470554 *  3.3679633    3.9142995    3.5370142  
   5 C       2.1361506 *  1.0831728 *  2.1381934 *  3.4068330    3.8996560  
   6 C       3.3680705    2.1484326 *  1.0856976 *  2.2201317 *  3.4717113  
   7 C       3.8900809    3.4409410    2.1916481 *  1.0845684 *  2.1039977 *
   8 C       3.4957445    3.9071670    3.3675089    2.0960422 *  1.0820787 *
   9 C       2.2019228 *  3.4718947    3.9360963    3.4652604    2.2202022 *
  10 O       2.6376885 *  4.4771088    5.1549737    4.4952605    2.6682059 *
  11 H       4.4861875    4.0203146    2.8954346 *  2.6748889 *  3.6960320  
  12 H       4.9018763    3.6091629    2.4681691 *  3.5950099    5.1714559  
  13 H       3.6582483    3.0630746    3.7434976    5.1049774    5.7973265  
  14 H       2.4595831 *  3.6955541    4.9286733    5.5205408    5.1068954  
  15 H       2.9703488 *  4.0341173    4.3986443    4.2139072    3.6119326  
  16 H       0.0000000    2.4615268 *  4.2575973    4.9713348    4.3819689  
  17 H       2.4615268 *  0.0000000    2.4679519 *  4.2935874    4.9710625  
  18 H       4.2575973    2.4679519 *  0.0000000    2.4707397 *  4.2724585  
  19 H       4.9713348    4.2935874    2.4707397 *  0.0000000    2.4563741 *
  20 H       4.3819689    4.9710625    4.2724585    2.4563741 *  0.0000000  

  * ... LESS THAN  3.000


     ATOMIC BASIS SET
     ----------------
 THE CONTRACTED PRIMITIVE FUNCTIONS HAVE BEEN UNNORMALIZED
 THE CONTRACTED BASIS FUNCTIONS ARE NOW NORMALIZED TO UNITY

  SHELL TYPE  PRIMITIVE        EXPONENT          CONTRACTION COEFFICIENT(S)

 C         

      1   S       1            71.6168373    0.154328967295
      1   S       2            13.0450963    0.535328142282
      1   S       3             3.5305122    0.444634542185

      2   L       4             2.9412494   -0.099967229187    0.155916274999
      2   L       5             0.6834831    0.399512826089    0.607683718598
      2   L       6             0.2222899    0.700115468880    0.391957393099

 C         

      3   S       7            71.6168373    0.154328967295
      3   S       8            13.0450963    0.535328142282
      3   S       9             3.5305122    0.444634542185

      4   L      10             2.9412494   -0.099967229187    0.155916274999
      4   L      11             0.6834831    0.399512826089    0.607683718598
      4   L      12             0.2222899    0.700115468880    0.391957393099

 C         

      5   S      13            71.6168373    0.154328967295
      5   S      14            13.0450963    0.535328142282
      5   S      15             3.5305122    0.444634542185

      6   L      16             2.9412494   -0.099967229187    0.155916274999
      6   L      17             0.6834831    0.399512826089    0.607683718598
      6   L      18             0.2222899    0.700115468880    0.391957393099

 C         

      7   S      19            71.6168373    0.154328967295
      7   S      20            13.0450963    0.535328142282
      7   S      21             3.5305122    0.444634542185

      8   L      22             2.9412494   -0.099967229187    0.155916274999
      8   L      23             0.6834831    0.399512826089    0.607683718598
      8   L      24             0.2222899    0.700115468880    0.391957393099

 C         

      9   S      25            71.6168373    0.154328967295
      9   S      26            13.0450963    0.535328142282
      9   S      27             3.5305122    0.444634542185

     10   L      28             2.9412494   -0.099967229187    0.155916274999
     10   L      29             0.6834831    0.399512826089    0.607683718598
     10   L      30             0.2222899    0.700115468880    0.391957393099

 C         

     11   S      31            71.6168373    0.154328967295
     11   S      32            13.0450963    0.535328142282
     11   S      33             3.5305122    0.444634542185

     12   L      34             2.9412494   -0.099967229187    0.155916274999
     12   L      35             0.6834831    0.399512826089    0.607683718598
     12   L      36             0.2222899    0.700115468880    0.391957393099

 C         

     13   S      37            71.6168373    0.154328967295
     13   S      38            13.0450963    0.535328142282
     13   S      39             3.5305122    0.444634542185

     14   L      40             2.9412494   -0.099967229187    0.155916274999
     14   L      41             0.6834831    0.399512826089    0.607683718598
     14   L      42             0.2222899    0.700115468880    0.391957393099

 C         

     15   S      43            71.6168373    0.154328967295
     15   S      44            13.0450963    0.535328142282
     15   S      45             3.5305122    0.444634542185

     16   L      46             2.9412494   -0.099967229187    0.155916274999
     16   L      47             0.6834831    0.399512826089    0.607683718598
     16   L      48             0.2222899    0.700115468880    0.391957393099

 C         

     17   S      49            71.6168373    0.154328967295
     17   S      50            13.0450963    0.535328142282
     17   S      51             3.5305122    0.444634542185

     18   L      52             2.9412494   -0.099967229187    0.155916274999
     18   L      53             0.6834831    0.399512826089    0.607683718598
     18   L      54             0.2222899    0.700115468880    0.391957393099

 O         

     19   S      55           130.7093214    0.154328967295
     19   S      56            23.8088661    0.535328142282
     19   S      57             6.4436083    0.444634542185

     20   L      58             5.0331513   -0.099967229187    0.155916274999
     20   L      59             1.1695961    0.399512826089    0.607683718598
     20   L      60             0.3803890    0.700115468880    0.391957393099

 H         

     21   S      61             3.4252509    0.154328967295
     21   S      62             0.6239137    0.535328142282
     21   S      63             0.1688554    0.444634542185

 H         

     22   S      64             3.4252509    0.154328967295
     22   S      65             0.6239137    0.535328142282
     22   S      66             0.1688554    0.444634542185

 H         

     23   S      67             3.4252509    0.154328967295
     23   S      68             0.6239137    0.535328142282
     23   S      69             0.1688554    0.444634542185

 H         

     24   S      70             3.4252509    0.154328967295
     24   S      71             0.6239137    0.535328142282
     24   S      72             0.1688554    0.444634542185

 H         

     25   S      73             3.4252509    0.154328967295
     25   S      74             0.6239137    0.535328142282
     25   S      75             0.1688554    0.444634542185

 H         

     26   S      76             3.4252509    0.154328967295
     26   S      77             0.6239137    0.535328142282
     26   S      78             0.1688554    0.444634542185

 H         

     27   S      79             3.4252509    0.154328967295
     27   S      80             0.6239137    0.535328142282
     27   S      81             0.1688554    0.444634542185

 H         

     28   S      82             3.4252509    0.154328967295
     28   S      83             0.6239137    0.535328142282
     28   S      84             0.1688554    0.444634542185

 H         

     29   S      85             3.4252509    0.154328967295
     29   S      86             0.6239137    0.535328142282
     29   S      87             0.1688554    0.444634542185

 H         

     30   S      88             3.4252509    0.154328967295
     30   S      89             0.6239137    0.535328142282
     30   S      90             0.1688554    0.444634542185

 TOTAL NUMBER OF BASIS SET SHELLS             =   30
 NUMBER OF CARTESIAN GAUSSIAN BASIS FUNCTIONS =   60
 NUMBER OF ELECTRONS                          =   72
 CHARGE OF MOLECULE                           =    0
 SPIN MULTIPLICITY                            =    1
 NUMBER OF OCCUPIED ORBITALS (ALPHA)          =   36
 NUMBER OF OCCUPIED ORBITALS (BETA )          =   36
 TOTAL NUMBER OF ATOMS                        =   20
 THE NUCLEAR REPULSION ENERGY IS      509.6278862090

     $CONTRL OPTIONS
     ---------------
 SCFTYP=RHF          RUNTYP=SADPOINT     EXETYP=RUN     
 MPLEVL=       0     CITYP =NONE         CCTYP =NONE         VBTYP =NONE    
 DFTTYP=NONE         TDDFT =NONE    
 MULT  =       1     ICHARG=       0     NZVAR =       1     COORD =UNIQUE  
 PP    =NONE         RELWFN=NONE         LOCAL =NONE         NUMGRD=       F
 ISPHER=      -1     NOSYM =       0     MAXIT =      30     UNITS =ANGS    
 PLTORB=       F     MOLPLT=       F     AIMPAC=       F     FRIEND=        
 NPRINT=       7     IREST =       0     GEOM  =INPUT   
 NORMF =       0     NORMP =       0     ITOL  =      20     ICUT  =       9
 INTTYP=BEST         GRDTYP=BEST         QMTTOL= 1.0E-06

     $SYSTEM OPTIONS
     ---------------
  REPLICATED MEMORY=     1000000 WORDS (ON EVERY NODE).
 DISTRIBUTED MEMDDI=           0 MILLION WORDS IN AGGREGATE,
 MEMDDI DISTRIBUTED OVER   1 PROCESSORS IS           0 WORDS/PROCESSOR.
 TOTAL MEMORY REQUESTED ON EACH PROCESSOR=     1000000 WORDS.
 TIMLIM=      525600.00 MINUTES, OR     365.0 DAYS.
 PARALL= F  BALTYP=  DLB     KDIAG=    0  COREFL= F
 MXSEQ2=     300 MXSEQ3=     150  mem10=         0

          ----------------
          PROPERTIES INPUT
          ----------------

     MOMENTS            FIELD           POTENTIAL          DENSITY
 IEMOM =       1   IEFLD =       0   IEPOT =       0   IEDEN =       0
 WHERE =COMASS     WHERE =NUCLEI     WHERE =NUCLEI     WHERE =NUCLEI  
 OUTPUT=BOTH       OUTPUT=BOTH       OUTPUT=BOTH       OUTPUT=BOTH    
 IEMINT=       0   IEFINT=       0                     IEDINT=       0
                                                       MORB  =       0
          EXTRAPOLATION IN EFFECT
          SOSCF IN EFFECT
 ORBITAL PRINTING OPTION: NPREO=     1    60     2     1

     -------------------------------
     INTEGRAL TRANSFORMATION OPTIONS
     -------------------------------
     NWORD  =            0
     CUTOFF = 1.0E-09     MPTRAN =       0
     DIRTRF =       F     AOINTS =DUP     

          ----------------------
          INTEGRAL INPUT OPTIONS
          ----------------------
 NOPK  =       1 NORDER=       0 SCHWRZ=       T


 -----------------------------------------------
  STATISTICS ON AUTOMATIC COORDINATE GENERATION 
 -----------------------------------------------
  NUMBER OF USER SPECIFIED BONDS                             6
  NUMBER OF BONDS                                           25
  NUMBER OF ANGLES                                          61
  NUMBER OF TORSIONS                                        62
  NUMBER OF EXTRA COORD.                                     0
  NUMBER OF EXTRA COORD. FOR CONSTRAINTS                     0
  NUMBER OF CONSTRAINED COORD.                               0

  TOTAL NUMBER OF PRIMITIVES                               148
 -----------------------------------------------

   --- ENCODED Z MATRIX ---
 COORD  TYPE   I   J   K   L   M   N
    1      1    1   6
    2      1    1   2
    3      1    1  12
    4      1    1  11
    5      1    1   2
    6      1    2   3
    7      1    2   3
    8      1    2  13
    9      1    3  15
   10      1    3  14
   11      1    3   4
   12      1    4   9
   13      1    4   5
   14      1    4  16
   15      1    4   5
   16      1    5   6
   17      1    5   6
   18      1    5  17
   19      1    6   7
   20      1    6  18
   21      1    7   8
   22      1    7  19
   23      1    8  20
   24      1    8   9
   25      1    9  10
   26      2    1   6   7
   27      2    1   6   5
   28      2    1   2   3
   29      2    1   2  13
   30      2    1   2   3
   31      2    1   6   5
   32      2    1   2  13
   33      2    1   2   3
   34      2    1   6  18
   35      2    1   2   3
   36      2    2   1  12
   37      2    2   3  15
   38      2    2   3  15
   39      2    2   1  11
   40      2    2   3  14
   41      2    2   1   6
   42      2    2   3   4
   43      2    2   3   4
   44      2    2   1  12
   45      2    2   1   6
   46      2    2   1  11
   47      2    2   3  14
   48      2    3   4   9
   49      2    3   2  13
   50      2    3   2  13
   51      2    3   4   5
   52      2    3   4  16
   53      2    3   4   5
   54      2    4   3  14
   55      2    4   3  15
   56      2    4   5   6
   57      2    4   5   6
   58      2    4   5  17
   59      2    4   5   6
   60      2    4   5   6
   61      2    4   9  10
   62      2    4   9   8
   63      2    4   5  17
   64      2    5   6   7
   65      2    5   6  18
   66      2    5   6   7
   67      2    5   4  16
   68      2    5   4  16
   69      2    5   4   9
   70      2    5   4   9
   71      2    5   6  18
   72      2    6   1  11
   73      2    6   7  19
   74      2    6   7   8
   75      2    6   5  17
   76      2    6   5  17
   77      2    6   1  12
   78      2    7   8   9
   79      2    7   8  20
   80      2    7   6  18
   81      2    8   9  10
   82      2    8   7  19
   83      2    9   8  20
   84      2    9   4  16
   85      2   11   1  12
   86      2   14   3  15
   87      3    1   6   5  17
   88      3    1   6   7  19
   89      3    1   6   5   4
   90      3    1   6   7   8
   91      3    1   2   3   4
   92      3    1   2   3  14
   93      3    1   2   3  15
   94      3    2   1   6   7
   95      3    2   1   6   5
   96      3    2   1   6  18
   97      3    2   3   4  16
   98      3    2   3   4   5
   99      3    2   3   4   9
  100      3    3   4   5  17
  101      3    3   4   5   6
  102      3    3   2   1  12
  103      3    3   2   1   6
  104      3    3   4   9  10
  105      3    3   4   9   8
  106      3    3   2   1  11
  107      3    4   9   8  20
  108      3    4   9   8   7
  109      3    4   3   2  13
  110      3    4   5   6  18
  111      3    4   5   6   7
  112      3    5   4   3  14
  113      3    5   4   3  15
  114      3    5   6   7  19
  115      3    5   6   7   8
  116      3    5   4   9   8
  117      3    5   4   9  10
  118      3    5   6   1  11
  119      3    5   6   1  12
  120      3    6   7   8   9
  121      3    6   7   8  20
  122      3    6   1   2  13
  123      3    6   5   4  16
  124      3    6   5   4   9
  125      3    7   8   9  10
  126      3    7   6   1  11
  127      3    7   6   5  17
  128      3    7   6   1  12
  129      3    8   7   6  18
  130      3    8   9   4  16
  131      3    9   8   7  19
  132      3    9   4   3  14
  133      3    9   4   3  15
  134      3    9   4   5  17
  135      3   10   9   8  20
  136      3   10   9   4  16
  137      3   11   1   6  18
  138      3   11   1   2  13
  139      3   12   1   6  18
  140      3   12   1   2  13
  141      3   13   2   3  15
  142      3   13   2   3  14
  143      3   14   3   4  16
  144      3   15   3   4  16
  145      3   16   4   5  17
  146      3   17   5   6  18
  147      3   18   6   7  19
  148      3   19   7   8  20

          INDEP./SYM. INTERNAL COORDINATES
          --------------------------------
 CRD  1=  -0.1235 (  1) -0.1274 ( 11) -0.1192 ( 12) -0.1326 ( 19) -0.4117 ( 26)
           0.1361 ( 27)  0.1361 ( 31)  0.1210 ( 34) -0.4039 ( 48)  0.1239 ( 51)
           0.1244 ( 52)  0.1239 ( 53) -0.1115 ( 55) -0.1044 ( 72)  0.2039 ( 87)
           0.2107 ( 89) -0.2066 (100) -0.2137 (101) -0.1631 (111) -0.1000 (117)
           0.1027 (121)  0.1563 (124) -0.1699 (127)  0.1634 (134)
 CRD  2=  -0.3500 ( 12)  0.3372 ( 19)  0.2096 ( 21) -0.1275 ( 24) -0.2685 ( 61)
           0.1239 ( 62)  0.1877 ( 73) -0.1380 ( 74)  0.1980 ( 79)  0.1445 ( 81)
          -0.1883 ( 83) -0.1031 ( 84)  0.1889 ( 94)  0.1553 ( 95)  0.1584 ( 98)
           0.2094 ( 99)  0.1035 (119)  0.1281 (126)  0.1371 (128)  0.1482 (132)
           0.1389 (133)
 CRD  3=   0.1095 (  3) -0.1058 ( 10)  0.1022 ( 12) -0.1173 ( 22) -0.2092 ( 24)
           0.1105 ( 25)  0.1962 ( 27)  0.1962 ( 31) -0.1552 ( 34) -0.1831 ( 41)
           0.2231 ( 42)  0.2231 ( 43) -0.1831 ( 45) -0.1922 ( 51)  0.1655 ( 52)
          -0.1922 ( 53) -0.1510 ( 54)  0.2104 ( 61) -0.1044 ( 62) -0.1299 ( 64)
          -0.1299 ( 66)  0.1085 ( 69)  0.1085 ( 70)  0.1848 ( 77)  0.1116 ( 80)
          -0.1060 ( 81) -0.1312 ( 83) -0.1034 ( 84)  0.1599 ( 88)  0.1614 ( 90)
           0.1679 (104)  0.1789 (105)
 CRD  4=  -0.4696 (  1)  0.3960 ( 11) -0.1278 ( 34)  0.1067 ( 41) -0.1347 ( 42)
          -0.1347 ( 43)  0.1067 ( 45)  0.1189 ( 52)  0.1785 ( 54)  0.1155 ( 55)
          -0.2080 ( 77)  0.1615 ( 88)  0.1877 ( 90)  0.1648 (104)  0.1993 (105)
          -0.1034 (108)  0.1232 (114)  0.1494 (115)  0.1596 (116)  0.1251 (117)
 CRD  5=  -0.1509 (  1) -0.2241 ( 11) -0.2213 ( 12) -0.2934 ( 19)  0.1426 ( 21)
           0.2331 ( 24) -0.1503 ( 41) -0.1503 ( 45) -0.1570 ( 54)  0.1149 ( 55)
          -0.2860 ( 61)  0.1719 ( 72) -0.2599 ( 73)  0.3724 ( 81)  0.2384 ( 82)
          -0.1267 ( 91)  0.1047 (103) -0.1666 (109)  0.1334 (122)
 CRD  6=  -0.3185 (  1) -0.3959 ( 11) -0.2048 ( 21) -0.1916 ( 23) -0.3257 ( 24)
          -0.1433 ( 54)  0.1092 ( 55)  0.2671 ( 61)  0.1108 ( 72)  0.1434 ( 73)
          -0.1382 ( 77)  0.1538 ( 78) -0.2451 ( 81) -0.1792 ( 83) -0.1367 ( 91)
           0.1260 (103) -0.1543 (109)  0.1502 (122)
 CRD  7=   0.3378 (  1)  0.3176 ( 11) -0.3568 ( 12) -0.3713 ( 19) -0.2157 ( 21)
          -0.2734 ( 23) -0.2444 ( 24) -0.1015 ( 25)  0.1277 ( 55)  0.1282 ( 72)
           0.1579 ( 78) -0.1160 ( 83)  0.1077 ( 87)  0.1040 (127)
 CRD  8=  -0.4287 ( 21)  0.1243 ( 24) -0.1754 ( 61)  0.3378 ( 73) -0.4092 ( 79)
           0.1914 ( 81) -0.3999 ( 82)  0.3938 ( 83)
 CRD  9=   0.1759 (  2)  0.1702 (  3)  0.1759 (  5)  0.1790 (  6)  0.1790 (  7)
           0.1542 ( 10)  0.1004 ( 14)  0.1056 ( 20)  0.1674 ( 22) -0.1923 ( 23)
           0.1502 ( 24)  0.2131 ( 25)  0.1580 ( 28)  0.1580 ( 30)  0.1580 ( 33)
           0.1580 ( 35)  0.1190 ( 56)  0.1190 ( 57)  0.1190 ( 59)  0.1190 ( 60)
           0.1513 ( 61) -0.1933 ( 62)  0.2205 ( 73) -0.1695 ( 74)  0.2804 ( 78)
          -0.2011 ( 79)  0.1140 (126)
 CRD 10=  -0.1228 (  4)  0.1124 (  9) -0.1006 ( 10)  0.2655 ( 12)  0.1442 ( 13)
           0.1442 ( 15) -0.1474 ( 16) -0.1474 ( 17) -0.2130 ( 19) -0.2508 ( 22)
           0.2598 ( 25) -0.1103 ( 39) -0.1103 ( 46)  0.1799 ( 58)  0.1330 ( 61)
          -0.1633 ( 62)  0.1799 ( 63) -0.1762 ( 73)  0.1883 ( 74) -0.1697 ( 75)
          -0.1697 ( 76) -0.1095 ( 79)  0.1348 ( 83)  0.1737 ( 94)  0.1442 ( 95)
           0.1332 ( 96)  0.1354 ( 97)  0.1459 ( 98)  0.1838 ( 99)
 CRD 11=  -0.1747 (  1) -0.1286 (  4) -0.1251 (  9) -0.1827 ( 11) -0.1606 ( 12)
          -0.1061 ( 14) -0.2970 ( 18) -0.1865 ( 19) -0.1986 ( 23)  0.1057 ( 26)
           0.1189 ( 41)  0.1190 ( 42)  0.1190 ( 43)  0.1189 ( 45)  0.1033 ( 48)
          -0.3047 ( 55) -0.3035 ( 72)  0.1437 ( 78)  0.1813 ( 91) -0.1838 (103)
           0.1920 (109) -0.1939 (122)
 CRD 12=   0.1922 (  2)  0.2308 (  3)  0.1922 (  5)  0.2008 (  6)  0.2008 (  7)
           0.1864 ( 10) -0.1618 ( 13) -0.1014 ( 14) -0.1618 ( 15) -0.1473 ( 16)
          -0.1473 ( 17) -0.1378 ( 18) -0.1821 ( 20) -0.1165 ( 21) -0.2707 ( 22)
           0.1408 ( 23) -0.1167 ( 24) -0.2874 ( 25)  0.1401 ( 62)  0.1298 ( 74)
          -0.1958 ( 78)  0.1061 ( 83) -0.1078 (133)
 CRD 13=  -0.1566 ( 10)  0.3374 ( 14) -0.3093 ( 20)  0.2063 ( 22)  0.1258 ( 24)
          -0.1068 ( 25)  0.1543 ( 64)  0.1543 ( 66) -0.1432 ( 69) -0.1432 ( 70)
          -0.1341 ( 74) -0.1406 ( 80) -0.1467 ( 81)  0.1761 ( 82)  0.1297 ( 84)
           0.1078 ( 90) -0.1280 ( 93)  0.1138 ( 95)  0.1025 ( 97)  0.1302 ( 98)
           0.1083 (104)  0.1462 (105) -0.1338 (106) -0.1171 (138) -0.1064 (141)
 CRD 14=  -0.2075 (  2) -0.1609 (  3) -0.2075 (  5) -0.1994 (  6) -0.1994 (  7)
          -0.3164 (  8) -0.1410 ( 10) -0.1905 ( 13) -0.1953 ( 14) -0.1905 ( 15)
          -0.2038 ( 16) -0.2038 ( 17) -0.2034 ( 18) -0.1164 ( 20) -0.1457 ( 36)
          -0.1268 ( 40) -0.1457 ( 44) -0.1268 ( 47)  0.1012 ( 54) -0.1180 ( 65)
          -0.1224 ( 67) -0.1224 ( 68) -0.1180 ( 71)  0.1158 ( 77)  0.1116 ( 80)
          -0.1137 ( 96) -0.1376 (112)  0.1222 (119)  0.1288 (128) -0.1079 (132)
 CRD 15=  -0.2144 (  2) -0.2869 (  4) -0.2144 (  5)  0.2264 (  6)  0.2264 (  7)
           0.2935 (  9) -0.2838 ( 29) -0.2838 ( 32) -0.1190 ( 36)  0.1249 ( 40)
          -0.1190 ( 44)  0.1249 ( 47)  0.2912 ( 49)  0.2912 ( 50) -0.1383 ( 54)
           0.1007 ( 55)  0.1332 ( 77)  0.1282 ( 92)  0.1290 (102)
 CRD 16=  -0.1733 (  1) -0.1011 (  4) -0.3044 (  8)  0.1172 ( 13)  0.3907 ( 14)
           0.1172 ( 15) -0.1062 ( 22) -0.2048 ( 25) -0.1445 ( 34) -0.1022 (101)
           0.1677 (107)  0.2004 (108)  0.1484 (110)  0.1326 (111) -0.1124 (115)
          -0.1890 (116) -0.1569 (117)  0.1680 (125)  0.1252 (127) -0.1302 (129)
          -0.1263 (130)  0.1353 (135)  0.1409 (146) -0.1106 (147)
 CRD 17=   0.1171 (  2)  0.1783 (  4)  0.1171 (  5)  0.1417 (  8) -0.1524 ( 16)
          -0.1524 ( 17) -0.4319 ( 20)  0.1532 ( 22) -0.1237 ( 37) -0.1237 ( 38)
           0.1386 ( 39)  0.1386 ( 46) -0.1327 ( 54)  0.1678 ( 55)  0.1798 ( 58)
           0.1798 ( 63) -0.1200 ( 65) -0.1200 ( 71) -0.1362 ( 72) -0.1599 ( 75)
          -0.1599 ( 76)  0.1061 ( 92)  0.1662 ( 93)  0.1195 (106)  0.1134 (118)
           0.1447 (138)  0.1658 (141)  0.1057 (142)
 CRD 18=   0.1247 (  6)  0.1247 (  7)  0.1348 (  8)  0.1794 (  9)  0.1349 ( 11)
          -0.2151 ( 14)  0.1600 ( 18) -0.3255 ( 20)  0.1717 ( 22)  0.1038 ( 25)
           0.1111 ( 37)  0.1111 ( 38) -0.1195 ( 55)  0.1451 ( 72) -0.1646 ( 77)
          -0.1004 ( 93) -0.1635 (102) -0.1162 (105) -0.1574 (106)  0.1024 (107)
           0.1032 (108) -0.1221 (114) -0.1422 (115) -0.1268 (116) -0.1203 (129)
          -0.1778 (130) -0.1368 (136) -0.1539 (138) -0.1600 (140) -0.1339 (141)
          -0.1002 (147)
 CRD 19=   0.2107 (  3) -0.1226 (  4) -0.3677 (  8) -0.1281 (  9)  0.1286 ( 10)
          -0.3561 ( 14)  0.4428 ( 18) -0.2560 ( 20) -0.1010 ( 56) -0.1010 ( 57)
          -0.1010 ( 59) -0.1010 ( 60)  0.1077 ( 96) -0.1290 (120) -0.1137 (121)
          -0.1088 (131) -0.1182 (134)
 CRD 20=  -0.1587 (  3)  0.1257 (  4) -0.1237 (  8) -0.2964 (  9)  0.2634 ( 10)
           0.1471 ( 13)  0.1471 ( 15) -0.1230 ( 16) -0.1230 ( 17) -0.1898 ( 55)
           0.1801 ( 58)  0.1801 ( 63)  0.1291 ( 67)  0.1291 ( 68)  0.1818 ( 72)
          -0.1708 ( 75) -0.1708 ( 76) -0.1062 ( 84) -0.1269 ( 92) -0.1972 ( 93)
          -0.1017 ( 96) -0.1634 ( 97) -0.1783 (106)  0.1089 (130) -0.1999 (138)
          -0.1006 (140) -0.2055 (141) -0.1352 (142)
 CRD 21=  -0.1888 (  3)  0.3498 (  4)  0.2727 (  8)  0.1945 (  9) -0.1148 ( 52)
           0.1149 ( 87)  0.1158 ( 88)  0.1477 ( 89)  0.1409 ( 90) -0.1292 (101)
           0.1110 (107)  0.1296 (108)  0.1626 (110)  0.1113 (111) -0.2115 (120)
          -0.1919 (121) -0.2084 (123) -0.1730 (124)  0.1318 (125)  0.1022 (129)
          -0.1855 (131) -0.1177 (134)  0.1132 (135) -0.1530 (145)  0.1298 (146)
          -0.1659 (148)
 CRD 22=  -0.1868 (  4) -0.3214 (  8) -0.1924 (  9) -0.2002 ( 18)  0.1323 ( 36)
           0.1359 ( 40)  0.1323 ( 44)  0.1359 ( 47) -0.2614 ( 54) -0.2617 ( 77)
           0.3082 ( 92)  0.1771 ( 93) -0.3084 (102) -0.1885 (106) -0.1003 (138)
          -0.2202 (140)  0.2192 (142)
 CRD 23=   0.4924 (  3)  0.2652 (  4) -0.3010 (  9) -0.5393 ( 10)  0.1150 ( 37)
           0.1150 ( 38) -0.1053 ( 39) -0.1053 ( 46)  0.1578 ( 85) -0.1746 ( 86)
          -0.1316 (113) -0.1189 (118) -0.1144 (126) -0.1271 (133) -0.1261 (137)
          -0.1386 (144)
 CRD 24=  -0.4771 (  3) -0.3283 (  4)  0.1292 (  8) -0.2821 (  9) -0.4357 ( 10)
           0.2356 ( 18)  0.1147 ( 37)  0.1147 ( 38)  0.1249 ( 39)  0.1249 ( 46)
          -0.1669 ( 85) -0.1480 ( 86) -0.1397 (113)  0.1490 (118)  0.1503 (126)
          -0.1406 (133)  0.1599 (137) -0.1491 (144)
 CRD 25=  -0.1346 (  3)  0.3187 (  4) -0.3862 (  9)  0.1410 ( 10) -0.1133 ( 13)
          -0.1133 ( 15)  0.1015 ( 16)  0.1015 ( 17) -0.1564 ( 22)  0.1732 ( 25)
          -0.1332 ( 36)  0.1499 ( 40) -0.1332 ( 44)  0.1499 ( 47)  0.1958 (112)
           0.1206 (113)  0.1112 (118)  0.1670 (119)  0.1543 (128)  0.1832 (132)
           0.1079 (133)  0.1442 (137)  0.1999 (139)  0.2300 (143)  0.1548 (144)
 CRD 26=  -0.3224 (  4)  0.1563 (  8) -0.2761 (  9) -0.3404 ( 18)  0.1460 ( 22)
           0.1040 ( 25)  0.1059 ( 54) -0.1247 ( 85) -0.1121 ( 86) -0.1007 ( 91)
          -0.2251 ( 92)  0.2313 (102)  0.1069 (103)  0.1322 (112) -0.1622 (119)
          -0.1630 (128)  0.1329 (132) -0.1018 (137) -0.1874 (139)  0.1734 (140)
          -0.1645 (142)  0.1485 (143)
 CRD 27=   0.1004 ( 18)  0.1405 ( 20)  0.1809 ( 34)  0.1705 ( 52)  0.1002 ( 90)
           0.2704 (107)  0.1366 (108) -0.2421 (110) -0.1385 (111)  0.1564 (115)
          -0.1180 (116) -0.1585 (120) -0.2994 (121)  0.2279 (123)  0.1291 (124)
           0.2700 (129) -0.2217 (130)  0.2096 (135) -0.1612 (136)  0.1942 (145)
          -0.2031 (146)  0.2134 (147) -0.2404 (148)
 CRD 28=  -0.1923 ( 12) -0.3423 ( 14)  0.1493 ( 20)  0.1206 ( 21)  0.4033 ( 22)
           0.3183 ( 23) -0.2624 ( 25)  0.2717 ( 61) -0.3076 ( 79) -0.2664 ( 81)
           0.2972 ( 83)
 CRD 29=   0.1825 ( 12)  0.1025 ( 18)  0.2113 ( 19)  0.2655 ( 20)  0.1181 ( 22)
          -0.5881 ( 23) -0.1198 ( 24) -0.3208 ( 25) -0.1043 ( 34) -0.2734 ( 73)
          -0.1439 ( 79)  0.2475 ( 82)  0.1739 ( 83)
 CRD 30=  -0.1698 (  1) -0.1697 ( 11)  0.1108 ( 14)  0.1274 ( 18)  0.1536 ( 20)
           0.1140 ( 52)  0.1876 ( 87) -0.2314 ( 88) -0.1919 (100)  0.2306 (104)
           0.2023 (107) -0.2728 (114)  0.2608 (117) -0.1987 (121) -0.2631 (125)
           0.2095 (127) -0.1184 (130)  0.2684 (131) -0.1949 (134)  0.1056 (136)
           0.1056 (138) -0.1059 (141) -0.1235 (147)
 CRD 31=   0.2397 ( 12)  0.2599 ( 14) -0.2304 ( 19) -0.2350 ( 20)  0.3204 ( 21)
           0.2992 ( 22) -0.3635 ( 24) -0.3102 ( 25) -0.1056 ( 61) -0.1218 ( 62)
           0.1170 ( 73)  0.1000 ( 74)  0.2274 ( 81) -0.2171 ( 82)
 CRD 32=   0.1979 (  3) -0.2547 (  4)  0.4049 (  8) -0.2533 (  9)  0.1916 ( 10)
          -0.1787 ( 12)  0.3712 ( 18) -0.1671 ( 19) -0.1876 ( 22)  0.1955 ( 23)
           0.1045 ( 24) -0.1722 ( 25)  0.1047 ( 78) -0.1093 ( 96)  0.1058 ( 97)
           0.1005 (110) -0.1289 (137)  0.1279 (144)
 CRD 33=   0.2222 ( 12) -0.2455 ( 14) -0.2213 ( 19)  0.3044 ( 20) -0.1436 ( 21)
           0.1919 ( 22)  0.1064 ( 23) -0.1363 ( 25)  0.1669 ( 58) -0.1826 ( 61)
           0.1669 ( 63)  0.1544 ( 73) -0.1644 ( 75) -0.1644 ( 76)  0.2323 ( 79)
          -0.1212 ( 80)  0.2315 ( 81) -0.1947 ( 82) -0.2564 ( 83)  0.1476 ( 84)
           0.1279 (137)  0.1346 (144)
 CRD 34=   0.1734 ( 12)  0.1392 ( 13) -0.2598 ( 14)  0.1392 ( 15)  0.1486 ( 16)
           0.1486 ( 17) -0.1628 ( 18) -0.2120 ( 20)  0.2704 ( 21) -0.3826 ( 22)
          -0.2140 ( 23)  0.2871 ( 24) -0.4413 ( 25)  0.1121 ( 73)
 CRD 35=   0.1091 (  1) -0.1395 (  3)  0.1542 (  4) -0.3605 (  8)  0.1451 (  9)
           0.2567 ( 18) -0.1279 ( 22)  0.1391 ( 23) -0.1341 ( 25) -0.1382 ( 55)
          -0.1431 ( 72)  0.1166 ( 78) -0.1272 ( 93) -0.1303 ( 96)  0.1245 ( 97)
           0.1417 (106)  0.1335 (112) -0.1230 (119) -0.1358 (128)  0.1546 (132)
          -0.1406 (137)  0.1858 (138) -0.2105 (139) -0.1605 (141)  0.2116 (143)
           0.1058 (144)
 CRD 36=  -0.1677 (  1)  0.1293 (  4) -0.1047 (  8)  0.1029 (  9) -0.1733 ( 11)
           0.1398 ( 18) -0.1239 ( 21)  0.1263 ( 23)  0.1369 ( 54)  0.1189 ( 55)
           0.1126 ( 72)  0.1671 ( 77) -0.1323 ( 92)  0.1547 ( 93)  0.1493 (102)
          -0.1342 (106)  0.2647 (109) -0.2564 (122) -0.1010 (137) -0.3520 (138)
           0.3894 (141)  0.1024 (142)
 CRD 37=   0.1688 (  2)  0.2281 (  3)  0.1688 (  5) -0.1394 (  6) -0.1394 (  7)
           0.1069 (  9) -0.2587 ( 10)  0.1345 ( 21) -0.1440 ( 24) -0.2120 ( 29)
          -0.2120 ( 32) -0.1533 ( 37) -0.1533 ( 38)  0.1410 ( 39)  0.1410 ( 46)
           0.2312 ( 49)  0.2312 ( 50)  0.1276 ( 54) -0.1057 ( 79) -0.1870 ( 85)
           0.1584 ( 86)  0.1681 (113)  0.1470 (118)  0.1595 (126)  0.1743 (133)
           0.1194 (137) -0.1668 (138) -0.1210 (140) -0.1153 (142)  0.1653 (144)
 CRD 38=  -0.2147 ( 12) -0.1123 ( 13) -0.1123 ( 15)  0.1602 ( 18) -0.2474 ( 19)
           0.3795 ( 21) -0.3641 ( 23)  0.1103 ( 24)  0.1695 ( 25)  0.1668 ( 62)
           0.1813 ( 73)  0.1010 ( 74) -0.2990 ( 78)  0.1109 ( 79) -0.2241 ( 81)
          -0.2824 ( 82)  0.1889 ( 83)
 CRD 39=  -0.1131 ( 19)  0.1108 ( 22) -0.1345 ( 23)  0.1846 ( 24) -0.1079 ( 34)
           0.1265 ( 52) -0.1142 ( 55)  0.1234 ( 72)  0.1212 ( 77) -0.1182 ( 78)
           0.1383 ( 79) -0.1335 ( 82)  0.1267 ( 88)  0.1559 ( 92) -0.1186 ( 93)
           0.1817 (102) -0.1292 (106)  0.1667 (110)  0.1838 (114)  0.1532 (117)
           0.1810 (123) -0.1433 (125) -0.1511 (129) -0.2133 (130) -0.2046 (131)
          -0.2251 (135) -0.1479 (138)  0.1630 (140)  0.1754 (142)  0.1676 (145)
           0.1775 (146) -0.1201 (148)
 CRD 40=   0.1423 ( 16)  0.1423 ( 17)  0.3328 ( 21) -0.2430 ( 22) -0.4354 ( 24)
           0.2024 ( 25)  0.1022 ( 58) -0.1640 ( 61)  0.1319 ( 62)  0.1022 ( 63)
           0.1199 ( 73) -0.1939 ( 74) -0.1055 ( 75) -0.1055 ( 76) -0.2496 ( 79)
           0.1737 ( 83) -0.1115 ( 99) -0.1067 (126) -0.1170 (133)  0.1029 (145)
 CRD 41=  -0.1968 (  1) -0.2101 ( 11)  0.1055 ( 12)  0.1025 ( 19)  0.1110 ( 34)
           0.1006 ( 52)  0.1946 ( 87)  0.1143 ( 88) -0.2025 (100) -0.1148 (104)
          -0.2561 (107) -0.1326 (110) -0.1062 (117)  0.2803 (121)  0.1166 (123)
           0.1273 (125)  0.2727 (127)  0.1673 (129) -0.1468 (130) -0.1204 (131)
          -0.2570 (134) -0.1570 (135) -0.2450 (136)  0.1090 (141)  0.2635 (147)
           0.1802 (148)
 CRD 42=   0.2498 (  1) -0.1036 (  3)  0.1103 (  4)  0.1063 (  6)  0.1063 (  7)
          -0.1194 (  9) -0.2258 ( 11) -0.1263 ( 12)  0.1321 ( 19)  0.1520 ( 36)
          -0.1541 ( 40)  0.1520 ( 44) -0.1541 ( 47)  0.1335 ( 65) -0.1421 ( 67)
          -0.1421 ( 68)  0.1335 ( 71) -0.1016 ( 72)  0.1038 ( 84)  0.1095 ( 88)
           0.1126 ( 93)  0.1110 ( 96)  0.1235 ( 97)  0.1443 (104)  0.1258 (106)
          -0.1107 (112)  0.1358 (114)  0.1571 (117) -0.1058 (119) -0.1659 (125)
          -0.1275 (129) -0.1444 (130) -0.1759 (131) -0.1049 (132) -0.2012 (135)
           0.1172 (138) -0.1051 (140) -0.1023 (142) -0.1377 (148)
 CRD 43=   0.1834 (  1) -0.2071 (  4)  0.1955 (  9) -0.1682 ( 11)  0.1775 ( 12)
          -0.2034 ( 19) -0.1079 ( 65) -0.1079 ( 71)  0.1275 ( 80)  0.1649 ( 85)
          -0.1346 ( 86) -0.2152 ( 92) -0.1601 ( 96) -0.1369 ( 97) -0.2209 (102)
           0.1336 (110)  0.1536 (112)  0.1592 (119)  0.1171 (123) -0.1005 (125)
           0.1411 (128) -0.1046 (131) -0.1187 (135) -0.1222 (137) -0.1927 (140)
          -0.1969 (142)  0.1114 (145)  0.1050 (146)
 CRD 44=   0.1533 (  2) -0.1556 (  3)  0.1533 (  5)  0.1480 (  6)  0.1480 (  7)
          -0.1609 ( 10)  0.1754 ( 13) -0.1736 ( 14)  0.1754 ( 15)  0.1531 ( 16)
           0.1531 ( 17) -0.1839 ( 20)  0.1197 ( 22)  0.1079 ( 25) -0.1043 ( 37)
          -0.1043 ( 38) -0.1199 ( 39) -0.1199 ( 46) -0.1104 ( 61)  0.1201 ( 62)
          -0.1277 ( 64) -0.1277 ( 66) -0.1090 ( 69) -0.1090 ( 70) -0.1253 ( 73)
           0.1360 ( 74)  0.1508 ( 80)  0.1711 ( 84)  0.1631 ( 85)  0.1917 ( 86)
           0.1285 ( 94) -0.1134 ( 99)  0.1393 (113) -0.1444 (118)  0.1666 (128)
          -0.1732 (132) -0.1769 (137) -0.1047 (141)  0.2038 (144)
 CRD 45=  -0.1188 (  3)  0.1635 (  4)  0.1375 (  6)  0.1375 (  7) -0.2030 (  9)
           0.2093 ( 12) -0.1078 ( 13) -0.1078 ( 15) -0.1997 ( 19)  0.1089 ( 36)
          -0.1547 ( 40)  0.1089 ( 44) -0.1547 ( 47)  0.1080 ( 55) -0.1090 ( 65)
           0.1343 ( 67)  0.1343 ( 68) -0.1090 ( 71) -0.1451 ( 84)  0.1550 ( 86)
           0.1622 ( 95)  0.1354 ( 98)  0.1295 (110)  0.1087 (113)  0.1310 (123)
          -0.1054 (128) -0.1202 (132) -0.1385 (137) -0.1938 (139) -0.2913 (143)
          -0.1002 (144)  0.1004 (145)  0.1237 (146)
 CRD 46=   0.2147 (  2) -0.1233 (  3) -0.1209 (  4)  0.2147 (  5)  0.1595 (  6)
           0.1595 (  7) -0.1655 ( 10) -0.1285 ( 13)  0.1514 ( 14) -0.1285 ( 15)
          -0.1500 ( 16) -0.1500 ( 17)  0.1055 ( 20) -0.1135 ( 36) -0.1289 ( 37)
          -0.1289 ( 38) -0.1135 ( 44) -0.1082 ( 52)  0.1060 ( 54)  0.1009 ( 69)
           0.1009 ( 70) -0.1399 ( 80)  0.2054 ( 85)  0.1340 ( 86)  0.1084 ( 88)
          -0.1017 (112) -0.1127 (118)  0.1370 (119) -0.2026 (126)  0.1939 (133)
           0.2345 (139)
 CRD 47=   0.2240 (  2) -0.1019 (  3)  0.2240 (  5) -0.2397 (  6) -0.2397 (  7)
           0.1109 ( 10) -0.2329 ( 13)  0.1104 ( 14) -0.2329 ( 15)  0.2306 ( 16)
           0.2306 ( 17) -0.1280 ( 20) -0.1384 ( 29) -0.1384 ( 32)  0.1017 ( 37)
           0.1017 ( 38)  0.1390 ( 49)  0.1390 ( 50)  0.1564 ( 58)  0.1564 ( 63)
          -0.1613 ( 75) -0.1613 ( 76) -0.1020 ( 86)  0.1004 ( 94) -0.1234 (113)
           0.1170 (116) -0.1269 (118)
 CRD 48=   0.2047 (  1) -0.1928 ( 11)  0.1111 ( 13)  0.1111 ( 15) -0.1453 ( 16)
          -0.1453 ( 17)  0.1239 ( 48)  0.1023 ( 52) -0.1857 (104)  0.1634 (105)
          -0.2262 (108)  0.1325 (110)  0.1461 (115)  0.2243 (116) -0.1248 (117)
          -0.1540 (121)  0.1569 (123)  0.1248 (125) -0.1102 (129)  0.1602 (131)
          -0.1448 (134)  0.2877 (135) -0.3573 (136)  0.1877 (146) -0.2469 (147)
 CRD 49=  -0.1222 (  3)  0.1042 (  4) -0.1699 (  6) -0.1699 (  7)  0.1758 (  8)
           0.1017 (  9)  0.1109 ( 12) -0.1601 ( 16) -0.1601 ( 17)  0.1589 ( 18)
           0.1049 ( 19)  0.1893 ( 28) -0.1162 ( 29)  0.1893 ( 30) -0.1162 ( 32)
           0.1893 ( 33)  0.1893 ( 35)  0.1521 ( 36) -0.1132 ( 39)  0.1428 ( 40)
           0.1521 ( 44) -0.1132 ( 46)  0.1428 ( 47)  0.1375 ( 56)  0.1375 ( 57)
          -0.1177 ( 58)  0.1375 ( 59)  0.1375 ( 60) -0.1177 ( 63)  0.1070 ( 65)
           0.1394 ( 67)  0.1394 ( 68)  0.1070 ( 71)  0.1682 ( 96) -0.1314 ( 97)
           0.1525 (112)  0.1034 (113) -0.1087 (118) -0.1032 (119)
 CRD 50=   0.2522 (  2) -0.1066 (  3)  0.2522 (  5) -0.1982 (  6) -0.1982 (  7)
           0.1372 ( 10)  0.2353 ( 13)  0.2353 ( 15) -0.1672 ( 16) -0.1672 ( 17)
           0.1291 ( 20) -0.1114 ( 29) -0.1114 ( 32)  0.1240 ( 37)  0.1240 ( 38)
           0.1470 ( 49)  0.1470 ( 50) -0.1022 ( 58) -0.1022 ( 63)  0.1069 ( 64)
           0.1069 ( 66)  0.1423 ( 75)  0.1423 ( 76)  0.1069 ( 85) -0.1041 ( 87)
           0.1012 ( 90)  0.1198 ( 95)  0.1233 ( 97)  0.1103 ( 98)  0.1333 (119)
          -0.1387 (126) -0.1373 (133)
 CRD 51=   0.1030 ( 51)  0.1030 ( 53) -0.1437 ( 87) -0.1387 ( 88)  0.1816 ( 90)
           0.1893 (100) -0.1310 (107)  0.1853 (108) -0.1750 (114)  0.1454 (115)
           0.1244 (117) -0.2872 (120) -0.1583 (124)  0.1185 (125) -0.1650 (127)
           0.1575 (129) -0.1250 (130) -0.1977 (135)  0.2548 (145) -0.1546 (146)
          -0.1629 (147)  0.3802 (148)
 CRD 52=  -0.1230 ( 11)  0.1139 ( 18) -0.1217 ( 28) -0.1217 ( 30) -0.1217 ( 33)
          -0.1217 ( 35)  0.1004 ( 41)  0.1004 ( 45)  0.1056 ( 56)  0.1056 ( 57)
           0.1056 ( 59)  0.1056 ( 60)  0.1263 ( 89)  0.1052 ( 91)  0.2586 ( 93)
          -0.1214 (101) -0.1078 (103) -0.2569 (106)  0.1010 (108) -0.2056 (109)
           0.1010 (115) -0.1357 (120)  0.2037 (122)  0.2697 (140) -0.2721 (142)
           0.1082 (145)  0.1609 (148)
 CRD 53=  -0.1245 (  4) -0.1325 (  8) -0.1233 (  9)  0.1031 ( 29)  0.1031 ( 32)
           0.1224 ( 37)  0.1224 ( 38)  0.1251 ( 39)  0.1251 ( 46)  0.1024 ( 49)
           0.1024 ( 50)  0.1365 ( 89) -0.2485 ( 91) -0.2183 ( 93) -0.1028 ( 94)
          -0.1805 ( 95)  0.1791 ( 98) -0.1388 (101)  0.2508 (103)  0.2146 (106)
           0.1157 (139) -0.2338 (140)  0.2360 (142) -0.1138 (143)
 CRD 54=  -0.1513 (  1) -0.1325 ( 11)  0.1029 ( 27)  0.1029 ( 31) -0.1652 ( 87)
           0.1147 ( 88)  0.1334 ( 89) -0.1317 ( 90)  0.1562 (100) -0.1419 (101)
          -0.2064 (108)  0.2716 (111) -0.2816 (115)  0.2117 (116)  0.2457 (120)
          -0.2513 (124)  0.1527 (135) -0.1654 (136)  0.2638 (145) -0.2783 (146)
           0.2171 (147) -0.2191 (148)

 THE DETERMINANT OF THE G MATRIX IS 10**(   -17)


                     --------------------
                     INTERNAL COORDINATES
                     --------------------

                 - - ATOMS - -         COORDINATE      COORDINATE
 NO.   TYPE    I  J  K  L  M  N        (BOHR,RAD)       (ANG,DEG)
 ----------------------------------------------------------------
   1 STRETCH   1  6                     3.7794521       2.0000001
   2 STRETCH   1  2                     2.6453247       1.3998456
   3 STRETCH   1 12                     2.0504987       1.0850773
   4 STRETCH   1 11                     2.0468763       1.0831604
   5 STRETCH   1  2                     2.6453247       1.3998456
   6 STRETCH   2  3                     2.6450389       1.3996944
   7 STRETCH   2  3                     2.6450389       1.3996944
   8 STRETCH   2 13                     2.0482382       1.0838811
   9 STRETCH   3 15                     2.0476496       1.0835696
  10 STRETCH   3 14                     2.0498682       1.0847436
  11 STRETCH   3  4                     3.7794519       1.9999999
  12 STRETCH   4  9                     2.9008975       1.5350890
  13 STRETCH   4  5                     2.6459195       1.4001604
  14 STRETCH   4 16                     2.0526020       1.0861903
  15 STRETCH   4  5                     2.6459195       1.4001604
  16 STRETCH   5  6                     2.6504691       1.4025679
  17 STRETCH   5  6                     2.6504691       1.4025679
  18 STRETCH   5 17                     2.0468998       1.0831728
  19 STRETCH   6  7                     2.8477319       1.5069549
  20 STRETCH   6 18                     2.0516710       1.0856976
  21 STRETCH   7  8                     2.4901034       1.3177061
  22 STRETCH   7 19                     2.0495372       1.0845684
  23 STRETCH   8 20                     2.0448323       1.0820787
  24 STRETCH   8  9                     2.8561648       1.5114174
  25 STRETCH   9 10                     2.3126968       1.2238265
  26 BEND      1  6  7                  1.7372268      99.5357649
  27 BEND      1  6  5                  1.8315271     104.9387715
  28 BEND      1  2  3                  2.0879342     119.6298192
  29 BEND      1  2 13                  2.0445198     117.1423536
  30 BEND      1  2  3                  2.0879342     119.6298192
  31 BEND      1  6  5                  1.8315271     104.9387715
  32 BEND      1  2 13                  2.0445198     117.1423536
  33 BEND      1  2  3                  2.0879342     119.6298192
  34 BEND      1  6 18                  1.7652297     101.1402121
  35 BEND      1  2  3                  2.0879342     119.6298192
  36 BEND      2  1 12                  2.0541642     117.6949374
  37 BEND      2  3 15                  2.0498918     117.4501458
  38 BEND      2  3 15                  2.0498918     117.4501458
  39 BEND      2  1 11                  2.0532273     117.6412562
  40 BEND      2  3 14                  2.0597096     118.0126656
  41 BEND      2  1  6                  1.8510365     106.0565810
  42 BEND      2  3  4                  1.8510943     106.0598908
  43 BEND      2  3  4                  1.8510943     106.0598908
  44 BEND      2  1 12                  2.0541642     117.6949374
  45 BEND      2  1  6                  1.8510365     106.0565810
  46 BEND      2  1 11                  2.0532273     117.6412562
  47 BEND      2  3 14                  2.0597096     118.0126656
  48 BEND      3  4  9                  1.7153944      98.2848571
  49 BEND      3  2 13                  2.0429941     117.0549395
  50 BEND      3  2 13                  2.0429941     117.0549395
  51 BEND      3  4  5                  1.8349232     105.1333562
  52 BEND      3  4 16                  1.7855357     102.3036588
  53 BEND      3  4  5                  1.8349232     105.1333562
  54 BEND      4  3 14                  1.7825785     102.1342229
  55 BEND      4  3 15                  1.6824655      96.3981718
  56 BEND      4  5  6                  2.0388743     116.8188931
  57 BEND      4  5  6                  2.0388743     116.8188931
  58 BEND      4  5 17                  2.0790520     119.1209043
  59 BEND      4  5  6                  2.0388743     116.8188931
  60 BEND      4  5  6                  2.0388743     116.8188931
  61 BEND      4  9 10                  2.1404939     122.6412688
  62 BEND      4  9  8                  1.9940143     114.2486038
  63 BEND      4  5 17                  2.0790520     119.1209043
  64 BEND      5  6  7                  2.0106236     115.2002467
  65 BEND      5  6 18                  2.0580556     117.9179017
  66 BEND      5  6  7                  2.0106236     115.2002467
  67 BEND      5  4 16                  2.0575898     117.8912087
  68 BEND      5  4 16                  2.0575898     117.8912087
  69 BEND      5  4  9                  2.0307091     116.3510593
  70 BEND      5  4  9                  2.0307091     116.3510593
  71 BEND      5  6 18                  2.0580556     117.9179017
  72 BEND      6  1 11                  1.6563491      94.9018115
  73 BEND      6  7 19                  2.0412741     116.9563912
  74 BEND      6  7  8                  2.1265345     121.8414518
  75 BEND      6  5 17                  2.0777827     119.0481807
  76 BEND      6  5 17                  2.0777827     119.0481807
  77 BEND      6  1 12                  1.8096682     103.6863501
  78 BEND      7  8  9                  2.1120034     121.0088825
  79 BEND      7  8 20                  2.1327704     122.1987433
  80 BEND      7  6 18                  1.9972980     114.4367453
  81 BEND      8  9 10                  2.1486656     123.1094719
  82 BEND      8  7 19                  2.1153743     121.2020194
  83 BEND      9  8 20                  2.0382792     116.7847959
  84 BEND      9  4 16                  1.9752038     113.1708405
  85 BEND     11  1 12                  1.9666956     112.6833548
  86 BEND     14  3 15                  1.9654111     112.6097623
  87 TORSION   1  6  5 17               1.5346555      87.9292816
  88 TORSION   1  6  7 19              -1.5215820     -87.1802246
  89 TORSION   1  6  5  4              -1.1664864     -66.8347474
  90 TORSION   1  6  7  8               1.6223410      92.9532905
  91 TORSION   1  2  3  4              -1.0632684     -60.9207899
  92 TORSION   1  2  3 14              -3.0465804    -174.5561960
  93 TORSION   1  2  3 15               0.7915475      45.3523294
  94 TORSION   2  1  6  7              -1.9740931    -113.1072051
  95 TORSION   2  1  6  5               0.1107104       6.3432402
  96 TORSION   2  1  6 18               2.2596018     129.4656492
  97 TORSION   2  3  4 16              -2.1456511    -122.9367536
  98 TORSION   2  3  4  5               0.0134798       0.7723359
  99 TORSION   2  3  4  9               2.1125531     121.0403783
 100 TORSION   3  4  5 17              -1.5973728     -91.5227222
 101 TORSION   3  4  5  6               1.1034361      63.2222324
 102 TORSION   3  2  1 12               3.0147519     172.7325585
 103 TORSION   3  2  1  6               1.0004127      57.3194266
 104 TORSION   3  4  9 10               1.5948982      91.3809339
 105 TORSION   3  4  9  8              -1.5416982     -88.3328001
 106 TORSION   3  2  1 11              -0.8242026     -47.2233328
 107 TORSION   4  9  8 20               3.1387834     179.8390426
 108 TORSION   4  9  8  7              -0.0199136      -1.1409647
 109 TORSION   4  3  2 13               1.5829873      90.6984936
 110 TORSION   4  5  6 18              -3.1137949    -178.4073079
 111 TORSION   4  5  6  7               0.7248120      41.5286669
 112 TORSION   5  4  3 14               2.1808424     124.9530675
 113 TORSION   5  4  3 15              -2.0983074    -120.2241555
 114 TORSION   5  6  7 19               2.8140119     161.2310043
 115 TORSION   5  6  7  8              -0.3252505     -18.6354807
 116 TORSION   5  4  9  8               0.4043860      23.1696097
 117 TORSION   5  4  9 10              -2.7422030    -157.1166564
 118 TORSION   5  6  1 11               2.2157885     126.9553265
 119 TORSION   5  6  1 12              -2.0639816    -118.2574341
 120 TORSION   6  7  8  9              -0.0163085      -0.9344059
 121 TORSION   6  7  8 20               3.1072398     178.0317278
 122 TORSION   6  1  2 13              -1.6454210     -94.2756790
 123 TORSION   6  5  4 16               3.0780170     176.3573835
 124 TORSION   6  5  4  9              -0.7726220     -44.2679804
 125 TORSION   7  8  9 10               3.1267018     179.1468173
 126 TORSION   7  6  1 11               0.1309849       7.5048811
 127 TORSION   7  6  5 17              -2.8572315    -163.7073041
 128 TORSION   7  6  1 12               2.1344002     122.2921205
 129 TORSION   8  7  6 18              -2.7942260    -160.0973556
 130 TORSION   8  9  4 16               2.8696052     164.4162676
 131 TORSION   9  8  7 19               3.1277126     179.2047295
 132 TORSION   9  4  3 14              -2.0032695    -114.7788901
 133 TORSION   9  4  3 15               0.0007660       0.0438870
 134 TORSION   9  4  5 17               2.8097543     160.9870650
 135 TORSION  10  9  8 20               0.0022135       0.1268246
 136 TORSION  10  9  4 16              -0.2769837     -15.8699984
 137 TORSION  11  1  6 18              -1.9185054    -109.9222646
 138 TORSION  11  1  2 13               2.8131489     161.1815615
 139 TORSION  12  1  6 18               0.0849098       4.8649748
 140 TORSION  12  1  2 13               0.3689181      21.1374528
 141 TORSION  13  2  3 15              -2.8453821    -163.0283871
 142 TORSION  13  2  3 14              -0.4003246     -22.9369125
 143 TORSION  14  3  4 16               0.0217115       1.2439780
 144 TORSION  15  3  4 16               2.0257470     116.0667550
 145 TORSION  16  4  5 17               0.3772080      21.6124289
 146 TORSION  17  5  6 18              -0.4126531     -23.6432788
 147 TORSION  18  6  7 19               0.3450364      19.7691293
 148 TORSION  19  7  8 20              -0.0319245      -1.8291368

     ------------------------------------------
     THE POINT GROUP IS C1 , NAXIS= 0, ORDER= 1
     ------------------------------------------

     DIMENSIONS OF THE SYMMETRY SUBSPACES ARE
 A   =   60

 ..... DONE SETTING UP THE RUN .....
 STEP CPU TIME =     0.06 TOTAL CPU TIME =          0.1 (      0.0 MIN)
 TOTAL WALL CLOCK TIME=          0.1 SECONDS, CPU UTILIZATION IS    75.00%


          -----------------------------
          STATIONARY POINT LOCATION RUN
          -----------------------------

 OBTAINING INITIAL HESSIAN, HESS=CALC    

     ---------------------------------
     HESSIAN MATRIX CONTROL PARAMETERS
     ---------------------------------
     METHOD=ANALYTIC   NVIB  =       2   VIBSIZ= 0.01000
     RDHESS=       F   PURIFY=       F   PRTIFC=       F
     VIBANL=       F   DECOMP=       F   PROJCT=       F
     SCLFAC= 1.00000   PRTSCN=       F   NPRT  =       0
     PULCOR=       F   NPUN  =       0   REDOVB=       T
     HSSTYP=GENERAL 
 Old integral subroutine is used

     ------------------------------
     CPHF RESPONSE SOLUTION OPTIONS
     ------------------------------
     POLAR  =       F     NWORD  =       0
     CPHF   =AO      

          ********************
          1 ELECTRON INTEGRALS
          ********************
 ...... END OF ONE-ELECTRON INTEGRALS ......
 STEP CPU TIME =     0.02 TOTAL CPU TIME =          0.1 (      0.0 MIN)
 TOTAL WALL CLOCK TIME=          0.1 SECONDS, CPU UTILIZATION IS    80.00%

          -------------
          GUESS OPTIONS
          -------------
          GUESS =HUCKEL            NORB  =       0          NORDER=       0
          MIX   =       F          PRTMO =       F          PUNMO =       F
          TOLZ  = 1.0E-08          TOLE  = 1.0E-05
          SYMDEN=       F          PURIFY=       F

 INITIAL GUESS ORBITALS GENERATED BY HUCKEL   ROUTINE.
 HUCKEL GUESS REQUIRES     53820 WORDS.

 SYMMETRIES FOR INITIAL GUESS ORBITALS FOLLOW.   BOTH SET(S).
    36 ORBITALS ARE OCCUPIED (   10 CORE ORBITALS).
    11=A       12=A       13=A       14=A       15=A       16=A       17=A   
    18=A       19=A       20=A       21=A       22=A       23=A       24=A   
    25=A       26=A       27=A       28=A       29=A       30=A       31=A   
    32=A       33=A       34=A       35=A       36=A       37=A       38=A   
    39=A       40=A       41=A       42=A       43=A       44=A       45=A   
    46=A   
 ...... END OF INITIAL ORBITAL SELECTION ......
 STEP CPU TIME =     0.02 TOTAL CPU TIME =          0.1 (      0.0 MIN)
 TOTAL WALL CLOCK TIME=          0.1 SECONDS, CPU UTILIZATION IS    76.92%

                    ----------------------
                    AO INTEGRAL TECHNOLOGY
                    ----------------------
     S,P,L SHELL ROTATED AXIS INTEGRALS, REPROGRAMMED BY
        KAZUYA ISHIMURA (IMS) AND JOSE SIERRA (SYNSTAR).
     S,P,D,L SHELL ROTATED AXIS INTEGRALS PROGRAMMED BY
        KAZUYA ISHIMURA (INSTITUTE FOR MOLECULAR SCIENCE).
     S,P,D,F,G SHELL TO TOTAL QUARTET ANGULAR MOMENTUM SUM 5,
        ERIC PROGRAM BY GRAHAM FLETCHER (ELORET AND NASA ADVANCED
        SUPERCOMPUTING DIVISION, AMES RESEARCH CENTER).
     S,P,D,F,G,L SHELL GENERAL RYS QUADRATURE PROGRAMMED BY
        MICHEL DUPUIS (PACIFIC NORTHWEST NATIONAL LABORATORY).

          --------------------
          2 ELECTRON INTEGRALS
          --------------------

 THE -PK- OPTION IS OFF, THE INTEGRALS ARE NOT IN SUPERMATRIX FORM.
 STORING   15000 INTEGRALS/RECORD ON DISK, USING 12 BYTES/INTEGRAL.
 TWO ELECTRON INTEGRAL EVALUATION REQUIRES   89821 WORDS OF MEMORY.
 SCHWARZ INEQUALITY OVERHEAD:      1797 INTEGRALS, T=        0.00
 II,JST,KST,LST =  1  1  1  1 NREC =         1 INTLOC =    1
 II,JST,KST,LST =  2  1  1  1 NREC =         1 INTLOC =    2
 II,JST,KST,LST =  3  1  1  1 NREC =         1 INTLOC =   34
 II,JST,KST,LST =  4  1  1  1 NREC =         1 INTLOC =  144
 II,JST,KST,LST =  5  1  1  1 NREC =         1 INTLOC = 1366
 II,JST,KST,LST =  6  1  1  1 NREC =         1 INTLOC = 1961
 II,JST,KST,LST =  7  1  1  1 NREC =         1 INTLOC = 6863
 II,JST,KST,LST =  8  1  1  1 NREC =         1 INTLOC = 8481
 II,JST,KST,LST =  9  1  1  1 NREC =         2 INTLOC = 5913
 II,JST,KST,LST = 10  1  1  1 NREC =         2 INTLOC = 9714
 II,JST,KST,LST = 11  1  1  1 NREC =         4 INTLOC = 5080
 II,JST,KST,LST = 12  1  1  1 NREC =         4 INTLOC =12198
 II,JST,KST,LST = 13  1  1  1 NREC =         7 INTLOC =12346
 II,JST,KST,LST = 14  1  1  1 NREC =         8 INTLOC = 8834
 II,JST,KST,LST = 15  1  1  1 NREC =        13 INTLOC = 6479
 II,JST,KST,LST = 16  1  1  1 NREC =        14 INTLOC = 9158
 II,JST,KST,LST = 17  1  1  1 NREC =        21 INTLOC =13434
 II,JST,KST,LST = 18  1  1  1 NREC =        23 INTLOC = 9506
 II,JST,KST,LST = 19  1  1  1 NREC =        34 INTLOC = 2421
 II,JST,KST,LST = 20  1  1  1 NREC =        35 INTLOC =13226
 II,JST,KST,LST = 21  1  1  1 NREC =        48 INTLOC = 1790
 II,JST,KST,LST = 22  1  1  1 NREC =        52 INTLOC = 2638
 II,JST,KST,LST = 23  1  1  1 NREC =        56 INTLOC = 2216
 II,JST,KST,LST = 24  1  1  1 NREC =        60 INTLOC = 6326
 II,JST,KST,LST = 25  1  1  1 NREC =        65 INTLOC = 2974
 II,JST,KST,LST = 26  1  1  1 NREC =        70 INTLOC = 6395
 II,JST,KST,LST = 27  1  1  1 NREC =        75 INTLOC =13315
 II,JST,KST,LST = 28  1  1  1 NREC =        81 INTLOC = 8814
 II,JST,KST,LST = 29  1  1  1 NREC =        87 INTLOC = 6897
 II,JST,KST,LST = 30  1  1  1 NREC =        93 INTLOC = 9681
 SCHWARZ INEQUALITY TEST SKIPPED       24205 INTEGRAL BLOCKS.
 TOTAL NUMBER OF NONZERO TWO-ELECTRON INTEGRALS =             1487603
        100 INTEGRAL RECORDS WERE STORED ON DISK FILE  8.
  ...... END OF TWO-ELECTRON INTEGRALS .....
 STEP CPU TIME =     0.27 TOTAL CPU TIME =          0.4 (      0.0 MIN)
 TOTAL WALL CLOCK TIME=          0.4 SECONDS, CPU UTILIZATION IS    92.50%

          --------------------------
                 RHF SCF CALCULATION
          --------------------------

     NUCLEAR ENERGY =       509.6278862090
     MAXIT =   30     NPUNCH=    2
     EXTRAP=T  DAMP=F  SHIFT=F  RSTRCT=F  DIIS=F  DEM=F  SOSCF=T
     DENSITY MATRIX CONV=  1.00E-05
     SOSCF WILL OPTIMIZE     864 ORBITAL ROTATIONS, SOGTOL=   0.250
     MEMORY REQUIRED FOR RHF ITERS=     59496 WORDS.

 ITER EX DEM     TOTAL ENERGY        E CHANGE  DENSITY CHANGE     ORB. GRAD
   1  0  0     -415.5233295849  -415.5233295849   0.524926207   0.000000000
          ---------------START SECOND ORDER SCF---------------
   2  1  0     -416.0288688587    -0.5055392737   0.309081699   0.064773580
   3  2  0     -416.0582798405    -0.0294109818   0.149721834   0.049247337
   4  3  0     -416.0921765443    -0.0338967039   0.028794585   0.007299139
   5  4  0     -416.0930425730    -0.0008660287   0.007017318   0.002934913
   6  5  0     -416.0931505053    -0.0001079323   0.002182480   0.000762912
   7  6  0     -416.0931630373    -0.0000125319   0.000815028   0.000261654
   8  7  0     -416.0931648883    -0.0000018510   0.000233267   0.000072945
   9  8  0     -416.0931650657    -0.0000001774   0.000140015   0.000023601
  10  9  0     -416.0931650975    -0.0000000318   0.000061618   0.000011480
  11 10  0     -416.0931651026    -0.0000000051   0.000021098   0.000003471
  12 11  0     -416.0931651036    -0.0000000010   0.000009460   0.000001378
  13 12  0     -416.0931651037    -0.0000000001   0.000003631   0.000000513

          -----------------
          DENSITY CONVERGED
          -----------------
     TIME TO FORM FOCK OPERATORS=       0.2 SECONDS (       0.0 SEC/ITER)
     TIME TO SOLVE SCF EQUATIONS=       0.1 SECONDS (       0.0 SEC/ITER)

 FINAL RHF ENERGY IS     -416.0931651037 AFTER  13 ITERATIONS

          ------------
          EIGENVECTORS
          ------------

                      1          2          3          4          5
                  -20.2612   -11.1181   -11.0543   -11.0493   -11.0456
                     A          A          A          A          A   
    1  C  1  S   -0.000000   0.000023  -0.030551  -0.005767  -0.093673
    2  C  1  S    0.000003  -0.000004  -0.003831   0.000013  -0.003298
    3  C  1  X   -0.000000   0.000009  -0.002403  -0.000284   0.000062
    4  C  1  Y   -0.000003   0.000009   0.000424  -0.000013  -0.000165
    5  C  1  Z    0.000000  -0.000009  -0.000361  -0.000119  -0.000017
    6  C  2  S   -0.000000   0.000015  -0.000571   0.000061   0.003815
    7  C  2  S    0.000010  -0.000030   0.000351   0.000060  -0.005971
    8  C  2  X   -0.000000   0.000024   0.000105   0.000051  -0.001842
    9  C  2  Y    0.000006  -0.000036  -0.000133   0.000015  -0.004079
   10  C  2  Z    0.000008  -0.000045  -0.000176  -0.000029  -0.001173
   11  C  3  S   -0.000005  -0.000221  -0.000698   0.000660   0.956306
   12  C  3  S   -0.000000   0.000304  -0.000021   0.000046   0.035457
   13  C  3  X    0.000042  -0.000252  -0.000043   0.000014  -0.000842
   14  C  3  Y    0.000017   0.000067   0.000048   0.000023  -0.000308
   15  C  3  Z    0.000006  -0.000067   0.000043   0.000003  -0.000395
   16  C  4  S   -0.000024  -0.001610  -0.004061  -0.005451  -0.246320
   17  C  4  S    0.000270  -0.005397  -0.000069  -0.000230  -0.011486
   18  C  4  X    0.000137  -0.001728   0.000068  -0.000016   0.001983
   19  C  4  Y    0.000417  -0.002354   0.000034   0.000060  -0.000218
   20  C  4  Z    0.000189   0.002781   0.000176   0.000165   0.000362
   21  C  5  S    0.000004  -0.000278   0.003928  -0.001152  -0.002032
   22  C  5  S    0.000033   0.000070  -0.006878  -0.000015   0.001838
   23  C  5  X   -0.000040  -0.000027   0.000884  -0.000071  -0.000058
   24  C  5  Y    0.000005  -0.000006   0.001741  -0.000003   0.001225
   25  C  5  Z    0.000059   0.000007   0.004127   0.000125   0.000154
   26  C  6  S    0.000003  -0.000254   0.991337   0.024120  -0.003374
   27  C  6  S    0.000007  -0.000064   0.036228  -0.004861   0.000126
   28  C  6  X    0.000001  -0.000046   0.001611  -0.001614  -0.000204
   29  C  6  Y   -0.000040  -0.000098   0.000325  -0.002271   0.000033
   30  C  6  Z   -0.000008   0.000017   0.000603   0.003077  -0.000029
   31  C  7  S    0.000005  -0.000272  -0.023327   0.991731  -0.002493
   32  C  7  S    0.000054   0.000111  -0.006866   0.035856  -0.000060
   33  C  7  X    0.000027  -0.000028   0.001410   0.000425  -0.000007
   34  C  7  Y    0.000031  -0.000012   0.002233   0.001613   0.000011
   35  C  7  Z   -0.000065   0.000085  -0.003415   0.000150   0.000049
   36  C  8  S   -0.000025  -0.001005  -0.001143   0.019716   0.000526
   37  C  8  S    0.000270  -0.005689   0.000344  -0.007398   0.000039
   38  C  8  X    0.000189   0.000199  -0.000038   0.001367  -0.000050
   39  C  8  Y    0.000473  -0.002080  -0.000151   0.004329   0.000015
   40  C  8  Z   -0.000064  -0.003556   0.000100   0.000504   0.000007
   41  C  9  S    0.000548   0.992564   0.000267   0.000342  -0.000413
   42  C  9  S   -0.007195   0.032728  -0.000008   0.000149   0.001554
   43  C  9  X   -0.001920   0.000059   0.000039   0.000049  -0.000414
   44  C  9  Y   -0.006016   0.000411   0.000116   0.000145  -0.000605
   45  C  9  Z   -0.000922  -0.000102   0.000075   0.000001   0.000830
   46  O 10  S    0.994267   0.000162   0.000005   0.000013  -0.000002
   47  O 10  S    0.025993  -0.005790  -0.000053  -0.000115  -0.000032
   48  O 10  X   -0.001697   0.000526   0.000009   0.000014  -0.000018
   49  O 10  Y   -0.005286   0.001622   0.000033   0.000057   0.000030
   50  O 10  Z   -0.000815   0.000269  -0.000002   0.000027  -0.000040
   51  H 11  S   -0.000002   0.000006   0.000363  -0.000948   0.000623
   52  H 12  S   -0.000002   0.000002   0.000358  -0.000012   0.000556
   53  H 13  S   -0.000002   0.000006  -0.000001   0.000001   0.000038
   54  H 14  S   -0.000006  -0.000035  -0.000017  -0.000014  -0.006681
   55  H 15  S    0.000080  -0.001057   0.000005  -0.000042  -0.006720
   56  H 16  S   -0.000179  -0.000014  -0.000090  -0.000023   0.001862
   57  H 17  S   -0.000021  -0.000052   0.000080  -0.000080  -0.000015
   58  H 18  S   -0.000016  -0.000026  -0.006924  -0.000128   0.000020
   59  H 19  S   -0.000021  -0.000038   0.000240  -0.006826   0.000026
   60  H 20  S   -0.000192   0.000012  -0.000037   0.000011   0.000014

                      6          7          8          9         10
                  -11.0452   -11.0444   -11.0258   -11.0184   -11.0121
                     A          A          A          A          A   
    1  C  1  S    0.987114   0.016996  -0.000216   0.000967  -0.003439
    2  C  1  S    0.035847   0.000652   0.000047   0.000289  -0.007230
    3  C  1  X   -0.001499  -0.000106   0.000001  -0.000069   0.001174
    4  C  1  Y    0.000746  -0.000038   0.000003   0.000042  -0.002531
    5  C  1  Z    0.000135  -0.000013  -0.000054  -0.000050  -0.003707
    6  C  2  S    0.004593   0.000551   0.000105  -0.018479   0.991933
    7  C  2  S   -0.007394  -0.001719   0.000028  -0.001163   0.036723
    8  C  2  X   -0.001343  -0.000450   0.000008  -0.000656   0.002510
    9  C  2  Y    0.002128  -0.000884  -0.000004   0.000198  -0.000422
   10  C  2  Z    0.003500  -0.000130   0.000004  -0.000167   0.000149
   11  C  3  S    0.086490   0.249848  -0.000269   0.000889  -0.003421
   12  C  3  S    0.003367   0.006461   0.000087   0.000298  -0.007232
   13  C  3  X   -0.000112  -0.002709   0.000007  -0.000064   0.002023
   14  C  3  Y    0.000026   0.000570   0.000074   0.000029   0.004084
   15  C  3  Z    0.000074  -0.000519  -0.000029  -0.000022   0.000866
   16  C  4  S   -0.040055   0.960222   0.001487  -0.004610   0.000543
   17  C  4  S   -0.001659   0.034025   0.000248  -0.007297   0.000019
   18  C  4  X    0.000190   0.001993   0.000051  -0.000152   0.000049
   19  C  4  Y   -0.000005  -0.001188   0.000020   0.004572   0.000152
   20  C  4  Z    0.000077   0.000123   0.000038   0.000536   0.000026
   21  C  5  S   -0.001032   0.005011  -0.004290   0.991918   0.018717
   22  C  5  S    0.000170  -0.006678  -0.000269   0.036679   0.000201
   23  C  5  X   -0.000007   0.000133  -0.000069  -0.002113   0.000610
   24  C  5  Y    0.000211  -0.004353  -0.000127   0.000937  -0.000093
   25  C  5  Z    0.000060  -0.000580   0.000170  -0.000869   0.000026
   26  C  6  S    0.031315   0.004849   0.000709  -0.003117   0.000405
   27  C  6  S   -0.001557   0.000169   0.000406  -0.007214   0.000019
   28  C  6  X    0.002486   0.000106   0.000078  -0.000893   0.000011
   29  C  6  Y   -0.000465  -0.000225  -0.000009  -0.001680  -0.000092
   30  C  6  Z    0.000284   0.000020  -0.000139  -0.004186  -0.000129
   31  C  7  S    0.004761   0.005173  -0.019197   0.001215  -0.000076
   32  C  7  S    0.000132   0.000118  -0.008920   0.000147   0.000008
   33  C  7  X   -0.000033   0.000038  -0.001422  -0.000111  -0.000032
   34  C  7  Y    0.000021  -0.000078  -0.004457  -0.000092   0.000033
   35  C  7  Z   -0.000069  -0.000151  -0.000512  -0.000112   0.000003
   36  C  8  S    0.000350  -0.001212   0.991968   0.004385  -0.000030
   37  C  8  S    0.000019   0.000065   0.036541   0.000092  -0.000014
   38  C  8  X   -0.000025   0.000035  -0.000543  -0.000006   0.000000
   39  C  8  Y    0.000002   0.000033  -0.001823   0.000105   0.000004
   40  C  8  Z   -0.000006  -0.000009  -0.000029  -0.000169  -0.000002
   41  C  9  S   -0.000100   0.002579   0.001994   0.000340  -0.000013
   42  C  9  S    0.000254  -0.005458  -0.005878   0.000129  -0.000010
   43  C  9  X   -0.000070   0.001459  -0.000301  -0.000083  -0.000035
   44  C  9  Y   -0.000096   0.002267   0.001980   0.000129  -0.000007
   45  C  9  Z    0.000135  -0.003038   0.003678   0.000063  -0.000035
   46  O 10  S    0.000001  -0.000022  -0.000022   0.000009   0.000000
   47  O 10  S   -0.000011   0.000244   0.000249  -0.000085   0.000005
   48  O 10  X   -0.000002  -0.000076   0.000010   0.000040   0.000006
   49  O 10  Y    0.000009  -0.000141  -0.000118   0.000032  -0.000006
   50  O 10  Z   -0.000008   0.000163  -0.000188  -0.000006   0.000000
   51  H 11  S   -0.006907  -0.000133  -0.000105  -0.000057   0.000014
   52  H 12  S   -0.006889  -0.000162  -0.000010  -0.000031   0.000107
   53  H 13  S    0.000051   0.000009  -0.000004   0.000141  -0.007002
   54  H 14  S   -0.000714  -0.001609  -0.000018  -0.000040   0.000105
   55  H 15  S   -0.000659  -0.001612  -0.000209  -0.000044   0.000020
   56  H 16  S    0.000274  -0.006683  -0.000099   0.000120  -0.000033
   57  H 17  S   -0.000001   0.000068  -0.000031  -0.006920  -0.000118
   58  H 18  S   -0.000085  -0.000156  -0.000094   0.000106  -0.000042
   59  H 19  S    0.000012  -0.000092   0.000266  -0.000106  -0.000003
   60  H 20  S   -0.000001  -0.000067  -0.006868  -0.000089   0.000001

                     11         12         13         14         15
                   -1.3129    -1.0917    -1.0182    -0.9718    -0.9333
                     A          A          A          A          A   
    1  C  1  S   -0.000701  -0.056356  -0.102729   0.069518  -0.076382
    2  C  1  S    0.001708   0.149826   0.276484  -0.191367   0.219179
    3  C  1  X    0.000328   0.011991  -0.031716   0.020044   0.018328
    4  C  1  Y    0.000333   0.016876   0.047932  -0.024466  -0.018750
    5  C  1  Z    0.000248   0.020692   0.058662  -0.016336  -0.007816
    6  C  2  S   -0.001041  -0.058349  -0.147841   0.066211   0.012159
    7  C  2  S    0.002304   0.145616   0.383232  -0.175397  -0.032681
    8  C  2  X    0.000911   0.030887   0.054154  -0.011834  -0.011223
    9  C  2  Y    0.000556   0.003378   0.017567   0.013579  -0.082209
   10  C  2  Z    0.000001  -0.014208  -0.025701   0.029849  -0.051624
   11  C  3  S   -0.003128  -0.051072  -0.114922   0.018443   0.091572
   12  C  3  S    0.007660   0.135659   0.310333  -0.047065  -0.260594
   13  C  3  X    0.002512   0.002895  -0.039276   0.042839  -0.005308
   14  C  3  Y    0.000346  -0.027935  -0.064028   0.024572  -0.004773
   15  C  3  Z   -0.000783  -0.008940  -0.020122   0.017640  -0.001545
   16  C  4  S   -0.021435  -0.087724  -0.008671  -0.125952   0.084071
   17  C  4  S    0.053612   0.230136   0.026356   0.348145  -0.241613
   18  C  4  X    0.011633   0.003471  -0.029308   0.021473  -0.006801
   19  C  4  Y    0.015054  -0.048172   0.005218  -0.071852  -0.051563
   20  C  4  Z   -0.019497  -0.030331   0.012801   0.000574   0.022102
   21  C  5  S   -0.005571  -0.108619   0.008414  -0.128252  -0.047924
   22  C  5  S    0.012748   0.273164  -0.021814   0.342485   0.130778
[...]
 18   H            X -0.07578613 -0.02038900 -0.01727482 -0.04521730 -0.01224125
                   Y -0.06882898 -0.00052234  0.03236085 -0.04836364 -0.01032501
                   Z  0.05314940  0.00789839 -0.00346364  0.07158081  0.01181144
 19   H            X -0.02500124 -0.00141962  0.01112999 -0.06871737 -0.01353801
                   Y -0.05579857 -0.00300446  0.01966379 -0.06139989 -0.00960494
                   Z  0.03692751  0.00188422 -0.00473574  0.15611610  0.03287938
 20   H            X  0.00356361  0.00101256  0.00345454 -0.02584231 -0.00002714
                   Y  0.00894589  0.00035054 -0.00252707  0.00166428  0.05616966
                   Z -0.01439762  0.00085196  0.01606918  0.13715597  0.07927810

 TRANS. SAYVETZ    X  0.00000302  0.00000158  0.00000123  0.00000130 -0.00000107
                   Y -0.00000142  0.00000002  0.00000049  0.00000080  0.00000002
                   Z -0.00000149  0.00000004 -0.00000056 -0.00000014 -0.00000043
               TOTAL  0.00000366  0.00000158  0.00000143  0.00000153  0.00000115

   ROT. SAYVETZ    X  0.00003905 -0.00001163  0.00024020  0.00005326 -0.00008217
                   Y -0.00040736  0.00030982  0.00062650 -0.00010423  0.00002105
                   Z  0.00030806  0.00023296 -0.00086043  0.00015815  0.00016643
               TOTAL  0.00051222  0.00038781  0.00109112  0.00019675  0.00018680

                           51          52          53          54          55
       FREQUENCY:      3629.97     3634.06     3685.65     3692.54     3695.57  
        SYMMETRY:         A           A           A           A           A   
    REDUCED MASS:      1.06267     1.06468     1.09104     1.09409     1.09592
    IR INTENSITY:      0.10426     0.07115     0.19306     0.04532     0.14783

  1   C            X -0.01371692 -0.00841177  0.00022060 -0.00021704 -0.00118328
                   Y -0.02569990 -0.01432775  0.00167026  0.00065877  0.00113668
                   Z -0.05150640 -0.03007241  0.00612848 -0.00187248  0.01093853
  2   C            X  0.00177440  0.00028736  0.00719472 -0.00413002  0.03427267
                   Y  0.00640218  0.00428886  0.00793620 -0.00478646  0.03819020
                   Z -0.00634344  0.00580346 -0.01308458  0.00721710 -0.06240313
  3   C            X -0.00082301  0.00244555 -0.00079772  0.00087979 -0.00290048
                   Y  0.03269712 -0.06007360 -0.00617960  0.00227435 -0.00992394
                   Z  0.00173272 -0.00214744  0.00162893  0.00054858  0.00380476
  4   C            X -0.00054238 -0.00042575 -0.00838312 -0.00787276  0.00110697
                   Y -0.00082478  0.00126606 -0.02130814 -0.02132193  0.00465827
                   Z -0.00311418  0.00089405 -0.05386417 -0.04775568  0.00928588
  5   C            X -0.00047973  0.00009001 -0.00469824  0.00135040  0.00010095
                   Y -0.00227636  0.00029264 -0.02276202  0.00899629  0.00066895
                   Z  0.00293908 -0.00114657  0.03250650 -0.00363687 -0.00029291
  6   C            X  0.00010372  0.00074427 -0.00084822  0.00163198 -0.00004197
                   Y  0.00326232 -0.00074145  0.03826350 -0.06129632 -0.01871646
                   Z  0.00043346  0.00069213  0.00388745 -0.00917126 -0.00357123
  7   C            X  0.00049389  0.00011748 -0.00009111 -0.00014016 -0.00016492
                   Y -0.00033856  0.00006292 -0.00448290  0.00935173  0.00411701
                   Z -0.00036176  0.00000520 -0.00598176  0.01340474  0.00638938
  8   C            X -0.00014127  0.00009697 -0.00133094  0.00312677  0.00130141
                   Y -0.00030396  0.00015286 -0.00120507  0.00328732  0.00134406
                   Z  0.00039956 -0.00003884  0.00270316 -0.00651635 -0.00281432
  9   C            X  0.00025574 -0.00029019 -0.00053809 -0.00068832  0.00010864
                   Y -0.00015713 -0.00001755 -0.00045428 -0.00056317  0.00010534
                   Z  0.00020270 -0.00007972  0.00109712  0.00160687 -0.00009151
 10   O            X -0.00001267 -0.00000579  0.00001924  0.00008978 -0.00003149
                   Y -0.00000749  0.00004303  0.00003815  0.00014947 -0.00003282
                   Z -0.00001026 -0.00000799 -0.00006991 -0.00015811  0.00000544
 11   H            X -0.06874150 -0.03845970  0.00923461 -0.00266596  0.01033772
                   Y -0.27266043 -0.15670387  0.02761915 -0.01043965  0.04478641
                   Z  0.51341459  0.29607444 -0.05211792  0.01906946 -0.07941789
 12   H            X  0.23890796  0.13520187 -0.01452138  0.00177610 -0.01080811
                   Y  0.54073855  0.30706269 -0.03785236  0.00540658 -0.02931738
                   Z  0.04906438  0.02754752 -0.00358375  0.00077509 -0.00322375
 13   H            X -0.05669380  0.01575536 -0.07386994  0.04251874 -0.36036052
                   Y -0.06829718  0.02121195 -0.09038834  0.05159162 -0.43639257
                   Z  0.11210665 -0.02877902  0.14620206 -0.08350837  0.70676012
 14   H            X  0.08074219 -0.14424433 -0.00723099  0.00237182 -0.00440200
                   Y -0.15764624  0.28210866  0.01774044 -0.00615728  0.01312451
                   Z -0.27092800  0.48590180  0.03100539 -0.01100410  0.02189219
 15   H            X -0.05660156  0.10147896  0.01316038 -0.00267963  0.01472247
                   Y -0.20198087  0.36883092  0.03844659 -0.00853390  0.05487060
                   Z  0.25971596 -0.47178649 -0.05004295  0.01118769 -0.07392407
 16   H            X  0.00815648 -0.00239266  0.10683944  0.09442176 -0.01740289
                   Y  0.01386871 -0.00389110  0.24680612  0.22139604 -0.04301503
                   Z  0.03629300 -0.01005705  0.60855917  0.54159839 -0.10425550
 17   H            X  0.00534878 -0.00151666  0.04997467 -0.01044974 -0.00148340
                   Y  0.02590320 -0.00733870  0.27651707 -0.05735218 -0.00835394
                   Z -0.03523934  0.01016539 -0.37419320  0.07516671  0.01115794
 18   H            X  0.00325667 -0.00124521  0.01729512 -0.02649287 -0.00692237
                   Y -0.03825615  0.01230159 -0.43628348  0.69378879  0.20881556
                   Z -0.00459984  0.00129446 -0.05631048  0.09129479  0.02808145
 19   H            X -0.00046560 -0.00007315 -0.00430891  0.00997060  0.00452697
                   Y  0.00322820 -0.00056385  0.04023048 -0.08837836 -0.04064350
                   Z  0.00725055 -0.00060885  0.07502040 -0.16406492 -0.07550064
 20   H            X  0.00197937 -0.00075629  0.01352352 -0.03804739 -0.01587070
                   Y  0.00327821 -0.00097590  0.01802912 -0.04880798 -0.02030476
                   Z -0.00467871  0.00102542 -0.02600945  0.07179695  0.02978651

 TRANS. SAYVETZ    X -0.00000053  0.00000141  0.00000048  0.00000053 -0.00000007
                   Y -0.00000059 -0.00000077 -0.00000042 -0.00000003 -0.00000038
                   Z -0.00000095  0.00000008  0.00000068  0.00000032 -0.00000093
               TOTAL  0.00000124  0.00000161  0.00000093  0.00000062  0.00000101

   ROT. SAYVETZ    X  0.00000378  0.00002718 -0.00001648  0.00000587 -0.00000219
                   Y  0.00004537  0.00001640 -0.00014696 -0.00008414 -0.00007965
                   Z -0.00000910 -0.00008254 -0.00006455  0.00015448 -0.00003240
               TOTAL  0.00004643  0.00008844  0.00016136  0.00017601  0.00008602

                           56          57          58          59          60
       FREQUENCY:      3703.92     3712.54     3736.09     3777.07     3779.49  
        SYMMETRY:         A           A           A           A           A   
    REDUCED MASS:      1.09128     1.10017     1.10606     1.11636     1.11670
    IR INTENSITY:      0.55353     0.10434     0.06735     0.00284     0.01523

  1   C            X  0.00002105 -0.00019780  0.00009222 -0.02661741  0.01078845
                   Y  0.00085009 -0.00167090  0.00034949 -0.07217174  0.02929726
                   Z  0.00028100  0.00112178 -0.00023278  0.04106970 -0.01604790
  2   C            X  0.00241642  0.00405963 -0.00003979 -0.00086628  0.00265130
                   Y  0.00245814  0.00411393 -0.00004060 -0.00007488  0.00289613
                   Z -0.00427482 -0.00681124  0.00003996  0.00216673 -0.00382918
  3   C            X  0.00004165 -0.00004718  0.00003991  0.00854924  0.02128356
                   Y -0.00038153 -0.00037455  0.00017170  0.00192741  0.00367325
                   Z  0.00045171  0.00184257 -0.00029102 -0.03401566 -0.08448922
  4   C            X -0.00132186 -0.00367022  0.00020837  0.00001695 -0.00047524
                   Y -0.00413930 -0.01448656  0.00110209 -0.00013194 -0.00040089
                   Z -0.00771683 -0.02405696  0.00220269  0.00000244 -0.00066227
  5   C            X  0.00134254  0.00491762 -0.00035850 -0.00003068  0.00000592
                   Y  0.01006566  0.04325159 -0.00292044 -0.00015295  0.00048548
                   Z -0.01143364 -0.05860931  0.00397683  0.00040325 -0.00063661
  6   C            X -0.00030184  0.00034138 -0.00066703  0.00028918 -0.00026672
                   Y -0.01592221  0.03454236 -0.00542687 -0.00058380  0.00078207
                   Z  0.00031480  0.00862980  0.00044518 -0.00030052  0.00019587
  7   C            X  0.00416071 -0.00103848 -0.00006063 -0.00020995  0.00013575
                   Y -0.03179881  0.00106727 -0.02925695 -0.00030889  0.00030009
                   Z -0.06002839  0.00547722 -0.03985579 -0.00060214  0.00040457
  8   C            X -0.01638663  0.00436409  0.03085972 -0.00011133  0.00003104
                   Y -0.01859239  0.00574340  0.04418651 -0.00001428 -0.00017700
                   Z  0.03333545 -0.00793303 -0.05161026  0.00003793  0.00001183
  9   C            X  0.00034508 -0.00048678 -0.00012389  0.00006322  0.00016864
                   Y -0.00015179 -0.00058062  0.00116275  0.00003963 -0.00006287
                   Z -0.00152862  0.00090467  0.00208466  0.00007385  0.00008921
 10   O            X -0.00008177  0.00007684 -0.00004804  0.00000599  0.00002191
                   Y -0.00007959  0.00016169 -0.00027215 -0.00001371 -0.00001876
                   Z  0.00017591 -0.00006592 -0.00021736 -0.00000799  0.00000741
 11   H            X -0.00038436  0.00133618 -0.00007880  0.06735840 -0.02709558
                   Y  0.00058098  0.00759394 -0.00216056  0.28553214 -0.11337878
                   Z -0.00094116 -0.01261547  0.00343324 -0.54390269  0.21640039
 12   H            X -0.00278428  0.00390126 -0.00111517  0.24955189 -0.10087342
                   Y -0.00692382  0.00974659 -0.00227633  0.56085837 -0.22654063
                   Z -0.00067840  0.00086440 -0.00010660  0.05478014 -0.02173021
 13   H            X -0.02476991 -0.04015166  0.00013451  0.01062830 -0.02806402
                   Y -0.02978256 -0.04835866  0.00035326  0.00909314 -0.03211546
                   Z  0.04811904  0.07837501 -0.00037109 -0.02214110  0.04951757
 14   H            X -0.00012059  0.00198814 -0.00014900 -0.06358106 -0.15855850
                   Y -0.00007043 -0.00479025  0.00038848  0.12569840  0.31190366
                   Z  0.00007978 -0.00826498  0.00055554  0.21222442  0.52810514
 15   H            X  0.00097547  0.00179713 -0.00081967 -0.03920048 -0.09721615
                   Y  0.00304570  0.00790122 -0.00196513 -0.14889553 -0.36568672
                   Z -0.00451793 -0.01124741  0.00272739  0.18897680  0.46377898
 16   H            X  0.01497865  0.04643650 -0.00367642  0.00057913  0.00270923
                   Y  0.03539161  0.11198988 -0.00859218  0.00107068  0.00500320
                   Z  0.08725847  0.27009527 -0.02068776  0.00237641  0.01228346
 17   H            X -0.01738902 -0.08141531  0.00487123  0.00045543 -0.00098838
                   Y -0.10364221 -0.47418825  0.03029461  0.00241209 -0.00522289
                   Z  0.13844521  0.64074189 -0.04041563 -0.00349557  0.00693963
 18   H            X -0.00593725  0.01276416 -0.00122924 -0.00106201  0.00061117
                   Y  0.17449397 -0.37276944  0.05304766  0.01145910 -0.00977141
                   Z  0.02077938 -0.05056907  0.00607932  0.00147958 -0.00119387
 19   H            X -0.04671869  0.00436149 -0.02988918 -0.00042309  0.00040229
                   Y  0.36145307 -0.02778867  0.23781316  0.00334956 -0.00238083
                   Z  0.68030342 -0.05434896  0.44331221  0.00552741 -0.00398810
 20   H            X  0.19873939 -0.05037718 -0.32389948  0.00084081  0.00005130
                   Y  0.25269472 -0.06450200 -0.41364707  0.00063797  0.00039362
                   Z -0.36916231  0.09382873  0.60005395 -0.00090205 -0.00044546

 TRANS. SAYVETZ    X -0.00000067 -0.00000066  0.00000042  0.00000000  0.00000005
                   Y  0.00000003 -0.00000001 -0.00000029  0.00000000 -0.00000002
                   Z -0.00000031  0.00000030  0.00000016  0.00000002  0.00000011
               TOTAL  0.00000073  0.00000072  0.00000054  0.00000002  0.00000013

   ROT. SAYVETZ    X  0.00000364 -0.00000607  0.00000592  0.00006773  0.00004346
                   Y -0.00000180  0.00001241 -0.00000409 -0.00002525  0.00011517
                   Z  0.00003762  0.00000347  0.00000011 -0.00006659  0.00006636
               TOTAL  0.00003784  0.00001424  0.00000719  0.00009828  0.00013984

 REFERENCE ON SAYVETZ CONDITIONS - A. SAYVETZ, J.CHEM.PHYS., 7, 383-389(1939).

 NOTE - THE MODES J,K ARE ORTHONORMALIZED ACCORDING TO
 SUM ON I   M(I) * (X(I,J)*X(I,K) + Y(I,J)*Y(I,K) + Z(I,J)*Z(I,K)) = DELTA(J,K)

  MODE FREQ(CM**-1)  SYMMETRY  RED. MASS  IR INTENS.
     1    1056.882    A        9.329962    0.066678
     2       6.345    A        4.269858    0.013404
     3       4.902    A        4.927024    0.007811
     4       3.381    A        5.257930    0.007011
     5       0.006    A        6.703498    0.000000
     6       0.038    A        6.705760    0.000001
     7       0.171    A        6.681587    0.000012
     8     103.342    A        4.136988    0.029960
     9     203.538    A        3.558289    0.016773
    10     265.630    A        4.167558    0.030576
    11     381.785    A        5.273973    0.035592
    12     437.830    A        2.244354    0.072243
    13     466.598    A        3.511403    0.112250
    14     493.051    A        4.023405    0.078010
    15     507.336    A        4.824805    0.100607
    16     553.238    A        1.960202    0.246700
    17     575.999    A        2.551056    0.270288
    18     611.284    A        4.883955    0.016161
    19     677.400    A        5.701688    0.079030
    20     840.320    A        3.284670    0.031975
    21     851.398    A        4.180415    0.032474
    22     926.766    A        1.667822    2.712882
    23     938.215    A        1.760705    0.123168
    24     963.919    A        1.780757    0.892635
    25    1004.359    A        1.461555    0.146254
    26    1041.162    A        1.598111    0.061963
    27    1093.017    A        1.578057    0.230760
    28    1119.626    A        2.726783    0.001882
    29    1166.717    A        2.147281    0.056827
    30    1209.063    A        1.281954    0.002965
    31    1214.486    A        1.525674    0.093218
    32    1241.833    A        1.133133    0.080298
    33    1270.710    A        1.288730    0.414797
    34    1302.912    A        1.134170    0.242996
    35    1318.693    A        1.220634    0.096456
    36    1341.994    A        1.225652    0.049753
    37    1366.378    A        1.160122    0.009748
    38    1387.552    A        1.276341    0.051400
    39    1418.665    A        1.830021    0.674506
    40    1471.217    A        1.322341    0.087623
    41    1489.031    A        1.667376    0.001784
    42    1599.382    A        1.597056    0.165718
    43    1637.038    A        1.712412    0.166641
    44    1668.146    A        1.525734    0.028102
    45    1718.484    A        2.483186    0.485089
    46    1758.540    A        1.912803    0.034746
    47    1813.787    A        1.255427    0.226172
    48    1856.575    A        2.341701    0.039375
    49    2009.771    A        7.074715    0.063610
    50    2081.006    A       10.652536    1.814565
    51    3629.975    A        1.062669    0.104257
    52    3634.056    A        1.064675    0.071154
    53    3685.654    A        1.091036    0.193056
    54    3692.541    A        1.094093    0.045324
    55    3695.569    A        1.095921    0.147833
    56    3703.916    A        1.091280    0.553528
    57    3712.540    A        1.100167    0.104342
    58    3736.092    A        1.106058    0.067350
    59    3777.068    A        1.116358    0.002840
    60    3779.489    A        1.116701    0.015231

     -------------------------------
     THERMOCHEMISTRY AT T=  298.15 K
     -------------------------------

 USING IDEAL GAS, RIGID ROTOR, HARMONIC NORMAL MODE APPROXIMATIONS.
 P=  1.01325E+05 PASCAL.
 ALL FREQUENCIES ARE SCALED BY   1.00000
 THE MOMENTS OF INERTIA ARE (IN AMU*BOHR**2)
            852.44338          1311.31020          1651.22597
 THE ROTATIONAL SYMMETRY NUMBER IS  1.0
 THE ROTATIONAL CONSTANTS ARE (IN GHZ)
      2.11520     1.37503     1.09197
   1 IMAGINARY FREQUENCY VIBRATION(S) IS(ARE) EXCLUDED
     FROM THE FOLLOWING THERMOCHEMICAL ANALYSIS.
      8 -     60 VIBRATIONAL MODES ARE USED IN THERMOCHEMISTRY.
 THE HARMONIC ZERO POINT ENERGY IS (SCALED BY   1.000)
        0.192379 HARTREE/MOLECULE    42222.345826 CM**-1/MOLECULE 
      120.719866 KCAL/MOL              505.091918 KJ/MOL

               Q               LN Q
 ELEC.     1.00000E+00       0.000000
 TRANS.    6.10192E+07      17.926699
 ROT.      4.86329E+05      13.094641
 VIB.      1.44990E+01       2.674078
 TOT.      4.30263E+14      33.695418

              E         H         G         CV        CP        S
           KJ/MOL    KJ/MOL    KJ/MOL   J/MOL-K   J/MOL-K   J/MOL-K
 ELEC.      0.000     0.000     0.000     0.000     0.000     0.000
 TRANS.     3.718     6.197   -44.439    12.472    20.786   169.836
 ROT.       3.718     3.718   -32.461    12.472    12.472   121.346
 VIB.     516.198   516.198   498.463    92.951    92.951    59.482
 TOTAL    523.635   526.113   421.563   117.894   126.208   350.664
 VIB. THERMAL CORRECTION E(T)-E(0) = H(T)-H(0) =     11105.761 J/MOL

              E         H         G         CV        CP        S
         KCAL/MOL  KCAL/MOL  KCAL/MOL CAL/MOL-K CAL/MOL-K CAL/MOL-K
 ELEC.      0.000     0.000     0.000     0.000     0.000     0.000
 TRANS.     0.889     1.481   -10.621     2.981     4.968    40.592
 ROT.       0.889     0.889    -7.758     2.981     2.981    29.002
 VIB.     123.374   123.374   119.136    22.216    22.216    14.217
 TOTAL    125.152   125.744   100.756    28.177    30.165    83.811
 VIB. THERMAL CORRECTION E(T)-E(0) = H(T)-H(0) =      2654.341 CAL/MOL
 ......END OF NORMAL COORDINATE ANALYSIS......
 STEP CPU TIME =     0.01 TOTAL CPU TIME =         70.1 (      1.2 MIN)
 TOTAL WALL CLOCK TIME=         70.3 SECONDS, CPU UTILIZATION IS    99.81%
               580000  WORDS OF DYNAMIC MEMORY USED
 EXECUTION OF GAMESS TERMINATED NORMALLY Sun Nov 14 21:06:57 2021
 DDI: 263640 bytes (0.3 MB / 0 MWords) used by master data server.

 ----------------------------------------
 CPU timing information for all processes
 ========================================
 0: 69.384 + 0.753 = 70.137
 ----------------------------------------
 ddikick.x: exited gracefully.
----- accounting info -----
Files used on the master node chemcompute-node-0.novalocal were:
-rw-r--r--. 1 chemcomp chemcomp     1472 Nov 14 21:05 /scratch/306507/342518.F05
-rw-rw-r--. 1 chemcomp chemcomp 18001600 Nov 14 21:06 /scratch/306507/342518.F08
-rw-rw-r--. 1 chemcomp chemcomp 85196800 Nov 14 21:06 /scratch/306507/342518.F10
-rw-rw-r--. 1 chemcomp chemcomp   878880 Nov 14 21:06 /scratch/306507/342518.F18
Sun Nov 14 21:07:00 UTC 2021
0.112u 0.087s 1:13.78 0.2%	0+0k 8+216io 0pf+0w
Finishing Up...
Looking for IR data...
Looking for Raman data...
vibramans not found
Looking for thermodynamics data...
Looking for UV-Vis data...
306507
