----- GAMESS execution script 'rungms' -----
This job is running on host chemcompute-node-0.novalocal
under operating system Linux at Sun Nov 14 22:13:05 UTC 2021
SLURM has assigned the following compute nodes to this run:
chemcompute-node-0
Available scratch disk space (Kbyte units) at beginning of the job is
Filesystem     1K-blocks     Used Available Use% Mounted on
/dev/sda1       62903276 16861448  46041828  27% /
GAMESS temporary binary files will be written to /scratch/306549
GAMESS supplementary output files will be written to /data/slurm/342560
Copying input file 342560.inp to your run's scratch directory...
The generated host list is
chemcompute-node-0.novalocal

 Distributed Data Interface kickoff program.
 Initiating 1 compute processes on 1 nodes to run the following command:
 /data/gamess-2019R1-ddi/gamess.00.x 342560 

          ******************************************************
          *         GAMESS VERSION = 30 JUN 2019 (R1)          *
          *             FROM IOWA STATE UNIVERSITY             *
          * M.W.SCHMIDT, K.K.BALDRIDGE, J.A.BOATZ, S.T.ELBERT, *
          *   M.S.GORDON, J.H.JENSEN, S.KOSEKI, N.MATSUNAGA,   *
          *          K.A.NGUYEN, S.J.SU, T.L.WINDUS,           *
          *       TOGETHER WITH M.DUPUIS, J.A.MONTGOMERY       *
          *         J.COMPUT.CHEM.  14, 1347-1363(1993)        *
          **************** 64 BIT LINUX VERSION ****************

  SINCE 1993, STUDENTS AND POSTDOCS WORKING AT IOWA STATE UNIVERSITY
  AND ALSO IN THEIR VARIOUS JOBS AFTER LEAVING ISU HAVE MADE IMPORTANT
  CONTRIBUTIONS TO THE CODE:
     IVANA ADAMOVIC, CHRISTINE AIKENS, YURI ALEXEEV, POOJA ARORA,
     ANDREY ASADCHEV, ROB BELL, PRADIPTA BANDYOPADHYAY, JONATHAN BENTZ,
     COLLEEN BERTONI, BRETT BODE, KURT BRORSEN, CALEB CARLIN, GALINA CHABAN,
     WEI CHEN, CHEOL HO CHOI, PAUL DAY, ALBERT DEFUSCO, NUWAN DESILVA,
     TIM DUDLEY, DMITRI FEDOROV, ALEX FINDLATER, GRAHAM FLETCHER, 
     MARK FREITAG, KURT GLAESEMANN, ANASTASIA GUNINA,
     DAN KEMP, GRANT MERRILL, NORIYUKI MINEZAWA, JONATHAN MULLIN,
     TAKESHI NAGATA, SEAN NEDD, HEATHER NETZLOFF, BOSILJKA NJEGIC, RYAN OLSON,
     MIKE PAK, BUU PHAM,
     SPENCER PRUITT, LUKE ROSKOP, JIM SHOEMAKER, LYUDMILA SLIPCHENKO,
     TONY SMITH, SAROM SOK LEANG, JIE SONG, TETSUYA TAKETSUGU, SIMON WEBB,
     PENG XU, SOOHAENG YOO, FEDERICO ZAHARIEV

  ADDITIONAL CODE HAS BEEN PROVIDED BY COLLABORATORS IN OTHER GROUPS:
     IOWA STATE UNIVERSITY:
          JOE IVANIC, AARON WEST, LAIMUTIS BYTAUTAS, KLAUS RUEDENBERG
     UNIVERSITY OF TOKYO: KIMIHIKO HIRAO, TAKAHITO NAKAJIMA,
          TAKAO TSUNEDA, MUNEAKI KAMIYA, SUSUMU YANAGISAWA,
          KIYOSHI YAGI, MAHITO CHIBA, SEIKEN TOKURA, NAOAKI KAWAKAMI
     UNIVERSITY OF AARHUS: FRANK JENSEN
     UNIVERSITY OF IOWA: VISVALDAS KAIRYS, HUI LI
     NATIONAL INST. OF STANDARDS AND TECHNOLOGY: WALT STEVENS, DAVID GARMER
     UNIVERSITY OF PISA: BENEDETTA MENNUCCI, JACOPO TOMASI
     UNIVERSITY OF MEMPHIS: HENRY KURTZ, PRAKASHAN KORAMBATH
     UNIVERSITY OF ALBERTA: TOBY ZENG, MARIUSZ KLOBUKOWSKI
     UNIVERSITY OF NEW ENGLAND: MARK SPACKMAN
     MIE UNIVERSITY: HIROAKI UMEDA
     NAT. INST. OF ADVANCED INDUSTRIAL SCIENCE AND TECHNOLOGY: KAZUO KITAURA
     MICHIGAN STATE UNIVERSITY:
          KAROL KOWALSKI, MARTA WLOCH, JEFFREY GOUR, JESSE LUTZ,
          WEI LI, JUN SHEN, J. EMILIANO DEUSTUA, PIOTR PIECUCH
     UNIVERSITY OF MINNESOTA:
          YINAN SHU
     UNIVERSITY OF SILESIA: MONIKA MUSIAL, STANISLAW KUCHARSKI
     FACULTES UNIVERSITAIRES NOTRE-DAME DE LA PAIX:
          OLIVIER QUINET, BENOIT CHAMPAGNE
     UNIVERSITY OF CALIFORNIA - SANTA BARBARA: BERNARD KIRTMAN
     INSTITUTE FOR MOLECULAR SCIENCE:
          KAZUYA ISHIMURA, MICHIO KATOUDA, AND SHIGERU NAGASE
     UNIVERSITY OF NOTRE DAME: ANNA POMOGAEVA, DAN CHIPMAN
     KYUSHU UNIVERSITY:
          HARUYUKI NAKANO,
          FENG LONG GU, JACEK KORCHOWIEC, MARCIN MAKOWSKI, AND YURIKO AOKI,
          HIROTOSHI MORI AND EISAKU MIYOSHI
     PENNSYLVANIA STATE UNIVERSITY:
          TZVETELIN IORDANOV, CHET SWALINA, JONATHAN SKONE,
          SHARON HAMMES-SCHIFFER
     WASEDA UNIVERSITY:
          MASATO KOBAYASHI, TOMOKO AKAMA, TSUGUKI TOUMA,
          TAKESHI YOSHIKAWA, YASUHIRO IKABATA, JUNJI SEINO,
          YUYA NAKAJIMA, HIROMI NAKAI
     NANJING UNIVERSITY: SHUHUA LI
     UNIVERSITY OF NEBRASKA:
          PEIFENG SU, DEJUN SI, NANDUN THELLAMUREGE, YALI WANG, HUI LI
     UNIVERSITY OF ZURICH: ROBERTO PEVERATI, KIM BALDRIDGE
     N. COPERNICUS UNIVERSITY AND JACKSON STATE UNIVERSITY:
          MARIA BARYSZ
     UNIVERSITY OF COPENHAGEN: Jimmy Kromann, CASPER STEINMANN
     TOKYO INSTITUTE OF TECHNOLOGY: HIROYA NAKATA
     NAGOYA UNIVERSITY: YOSHIO NISHIMOTO, STEPHAN IRLE
     MOSCOW STATE UNIVERSITY: VLADIMIR MIRONOV
     A.N.NESMEYANOV INSTITUTE OF ORGANOELEMENT COMPOUNDS OF RUSSIAN ACADEMY OF SCIENCES:
          IGOR S. GERASIMOV

 EXECUTION OF GAMESS BEGUN Sun Nov 14 22:13:05 2021

            ECHO OF THE FIRST FEW INPUT CARDS -
 INPUT CARD> $BASIS GBASIS=STO NGAUSS=3 $END                                                
 INPUT CARD> $CONTRL SCFTYP=RHF RUNTYP=OPTIMIZE NZVAR=1 mult=1  ICHARG=0 $END               
 INPUT CARD> $STATPT hssend=.t. OPTTOL=0.0005 NSTEP=50 $END                                 
 INPUT CARD> $STATPT HESS=calc ihrep=5 $END                                                 
 INPUT CARD> $FORCE nvib=2 $END                                                             
 INPUT CARD> $ZMAT DLC=.t. auto=.t. nonvdw(1)=3,17,2,19,17,19 $END                          
 INPUT CARD> $ZMAT IFZMAT(1)=1,3,17,1,2,19,1,17,19 fvalue(1)=2.08,2.01,1.98, $END           
 INPUT CARD>                                                                                
 INPUT CARD> $DATA                                                                          
 INPUT CARD>Title                                                                           
 INPUT CARD>C1                                                                              
 INPUT CARD>C     6.0     0.99020    -0.11555     0.04760                                   
 INPUT CARD>C     6.0     2.49471    -0.06843     0.00567                                   
 INPUT CARD>C     6.0     3.29293    -1.17178    -0.01289                                   
 INPUT CARD>C     6.0     4.66135    -0.73104    -0.50833                                   
 INPUT CARD>C     6.0     4.71408     0.71471    -0.03741                                   
 INPUT CARD>C     6.0     3.27831     1.19508    -0.21677                                   
 INPUT CARD>H     1.0     0.62628    -1.15950     0.15427                                   
 INPUT CARD>H     1.0     0.58231     0.31061    -0.89233                                   
 INPUT CARD>H     1.0     0.61395     0.48288     0.90305                                   
 INPUT CARD>H     1.0     2.83364    -2.16749    -0.17754                                   
 INPUT CARD>H     1.0     4.64079    -0.76139    -1.62034                                   
 INPUT CARD>H     1.0     5.51615    -1.33765    -0.14043                                   
 INPUT CARD>H     1.0     5.49314     1.35391    -0.50373                                   
 INPUT CARD>H     1.0     4.91513     0.68519     1.05757                                   
 INPUT CARD>H     1.0     3.07905     1.52682    -1.25875                                   
 INPUT CARD>H     1.0     3.04876     2.01457     0.49747                                   
 INPUT CARD>B     5.0     3.61450    -1.69506     1.97372                                   
 INPUT CARD>H     1.0     4.74432    -1.67686     2.32539                                   
 INPUT CARD>H     1.0     2.63699     0.03019     2.00612                                   
 INPUT CARD>H     1.0     2.99888    -2.66120     2.27341                                   
 INPUT CARD> $END                                                                           
    1000000 WORDS OF MEMORY AVAILABLE

     BASIS OPTIONS
     -------------
     GBASIS=STO          IGAUSS=       3      POLAR=NONE    
     NDFUNC=       0     NFFUNC=       0     DIFFSP=       F
     NPFUNC=       0      DIFFS=       F     BASNAM=        


     RUN TITLE
     ---------
 Title                                                                           

 THE POINT GROUP OF THE MOLECULE IS C1      
 THE ORDER OF THE PRINCIPAL AXIS IS     0

 ATOM      ATOMIC                      COORDINATES (BOHR)
           CHARGE         X                   Y                   Z
 C           6.0     1.8712066730       -0.2183578379        0.0899509570
 C           6.0     4.7143183188       -0.1293139493        0.0107147464
 C           6.0     6.2227353967       -2.2143431179       -0.0243585680
 C           6.0     8.8086742329       -1.3814652861       -0.9606044113
 C           6.0     8.9083194842        1.3506060607       -0.0706946492
 C           6.0     6.1951076028        2.2583737334       -0.4096359024
 H           1.0     1.1834975916       -2.1911372828        0.2915280281
 H           1.0     1.1004063399        0.5869677890       -1.6862591906
 H           1.0     1.1601972702        0.9125108850        1.7065170532
 H           1.0     5.3548031478       -4.0959621811       -0.3355019519
 H           1.0     8.7698214666       -1.4388184698       -3.0619986069
 H           1.0    10.4240120072       -2.5277919675       -0.2653742205
 H           1.0    10.3805294122        2.5585189120       -0.9519116718
 H           1.0     9.2882488940        1.2948213495        1.9985175128
 H           1.0     5.8185608025        2.8852714326       -2.3786925870
 H           1.0     5.7613210023        3.8069852831        0.9400819871
 B           5.0     6.8304145826       -3.2031989327        3.7297899765
 H           1.0     8.9654647981       -3.1688059198        4.3943499146
 H           1.0     4.9831885324        0.0570508276        3.7910170985
 H           1.0     5.6670614701       -5.0289387985        4.2961219577

          INTERNUCLEAR DISTANCES (ANGS.)
          ------------------------------

                1 C          2 C          3 C          4 C          5 C     

   1 C       0.0000000    1.5058316 *  2.5341362 *  3.7636722    3.8162600  
   2 C       1.5058316 *  0.0000000    1.3619401 *  2.3232686 *  2.3538835 *
   3 C       2.5341362 *  1.3619401 *  0.0000000    1.5206202 *  2.3620146 *
   4 C       3.7636722    2.3232686 *  1.5206202 *  0.0000000    1.5214267 *
   5 C       3.8162600    2.3538835 *  2.3620146 *  1.5214267 *  0.0000000  
   6 C       2.6501113 *  1.5033183 *  2.3756698 *  2.3890888 *  1.5245855 *
   7 H       1.1106970 *  2.1687661 *  2.6719123 *  4.1114969    4.5010569  
   8 H       1.1097094 *  2.1464736 *  3.2122197    4.2274174    4.2385975  
   9 H       1.1097194 *  2.1555723 *  3.2792956    4.4550019    4.2129890  
  10 H       2.7675651 *  2.1341257 *  1.1088261 *  2.3480491 *  3.4442369  
  11 H       4.0652110    2.7802449 *  2.1375318 *  1.1126141 *  2.1656200 *
  12 H       4.6918128    3.2804518    2.2330442 *  1.1108596 *  2.2059263 *
  13 H       4.7686210    3.3575470    3.3854037    2.2447522 *  1.1103898 *
  14 H       4.1311378    2.7446074 *  2.6880765 *  2.1265358 *  1.1136758 *
  15 H       2.9609498 *  2.1177898 *  2.9799922 *  2.8574001 *  2.1964784 *
  16 H       2.9962416 *  2.2108206 *  3.2361880    3.3392296    2.1792254 *
  17 B       3.6182510    2.7880236 *  2.0793866 *  2.8610840 *  3.3257648  
  18 H       4.6604113    3.6095558    2.7980694 *  2.9885496 *  3.3620448  
  19 H       2.5629979 *  2.0079267 *  2.4395472 *  3.3166193    2.9931397 *
  20 H       3.9331107    3.4812768    2.7444499 *  3.7719228    4.4360533  

                6 C          7 H          8 H          9 H         10 H     

   1 C       2.6501113 *  1.1106970 *  1.1097094 *  1.1097194 *  2.7675651 *
   2 C       1.5033183 *  2.1687661 *  2.1464736 *  2.1555723 *  2.1341257 *
   3 C       2.3756698 *  2.6719123 *  3.2122197    3.2792956    1.1088261 *
   4 C       2.3890888 *  4.1114969    4.2274174    4.4550019    2.3480491 *
   5 C       1.5245855 *  4.5010569    4.2385975    4.2129890    3.4442369  
   6 C       0.0000000    3.5658072    2.9166907 *  2.9765819 *  3.3920713  
   7 H       3.5658072    0.0000000    1.8051394 *  1.8050583 *  2.4491998 *
   8 H       2.9166907 *  1.8051394 *  0.0000000    1.8039034 *  3.4235057  
   9 H       2.9765819 *  1.8050583 *  1.8039034 *  0.0000000    3.6220380  
  10 H       3.3920713    2.4491998 *  3.4235057    3.6220380    0.0000000  
  11 H       2.7666108 *  4.4072693    4.2603336    4.9123462    2.7063962 *
  12 H       3.3806030    4.9019806    5.2559387    5.3324239    2.8081794 *
  13 H       2.2389830 *  5.5169303    5.0354480    5.1521081    4.4248840  
  14 H       2.1361437 *  4.7553198    4.7661042    4.3087069    3.7411069  
  15 H       1.1115207 *  3.9024379    2.8012749 *  3.4409167    3.8570931  
  16 H       1.1110337 *  4.0076073    3.3043001    2.9049732 *  4.2416437  
  17 B       3.6420021    3.5393052    4.6293770    3.8591524    2.3368466 *
  18 H       4.1060689    4.6839809    5.6237075    4.8731391    3.1868597  
  19 H       2.5902703 *  2.9812188 *  3.5638964    2.3482722 *  3.1043259  
  20 H       4.5989100    3.5178243    4.9692429    4.1774414    2.5056356 *

               11 H         12 H         13 H         14 H         15 H     

   1 C       4.0652110    4.6918128    4.7686210    4.1311378    2.9609498 *
   2 C       2.7802449 *  3.2804518    3.3575470    2.7446074 *  2.1177898 *
   3 C       2.1375318 *  2.2330442 *  3.3854037    2.6880765 *  2.9799922 *
   4 C       1.1126141 *  1.1108596 *  2.2447522 *  2.1265358 *  2.8574001 *
   5 C       2.1656200 *  2.2059263 *  1.1103898 *  1.1136758 *  2.1964784 *
   6 C       2.7666108 *  3.3806030    2.2389830 *  2.1361437 *  1.1115207 *
   7 H       4.4072693    4.9019806    5.5169303    4.7553198    3.9024379  
   8 H       4.2603336    5.2559387    5.0354480    4.7661042    2.8012749 *
   9 H       4.9123462    5.3324239    5.1521081    4.3087069    3.4409167  
  10 H       2.7063962 *  2.8081794 *  4.4248840    3.7411069    3.8570931  
  11 H       0.0000000    1.8134123 *  2.5392543 *  3.0559873    2.7938655 *
  12 H       1.8134123 *  0.0000000    2.7160655 *  2.4265842 *  3.9236825  
  13 H       2.5392543 *  2.7160655 *  0.0000000    1.7941404 *  2.5353074 *
  14 H       3.0559873    2.4265842 *  1.7941404 *  0.0000000    3.0732506  
  15 H       2.7938655 *  3.9236825    2.5353074 *  3.0732506    0.0000000  
  16 H       3.8373992    4.2109748    2.7228417 *  2.3588769 *  1.8229444 *
  17 B       3.8525677    2.8659457 *  4.3546831    2.8629634 *  4.5952236  
  18 H       4.0518624    2.6059649 *  4.2131008    2.6862285 *  5.0875091  
  19 H       4.2181780    3.8429449    4.0260619    2.5531733 *  3.6186592  
  20 H       4.6331885    3.7302891    5.4822393    4.0433411    5.4792420  

               16 H         17 B         18 H         19 H         20 H     

   1 C       2.9962416 *  3.6182510    4.6604113    2.5629979 *  3.9331107  
   2 C       2.2108206 *  2.7880236 *  3.6095558    2.0079267 *  3.4812768  
   3 C       3.2361880    2.0793866 *  2.7980694 *  2.4395472 *  2.7444499 *
   4 C       3.3392296    2.8610840 *  2.9885496 *  3.3166193    3.7719228  
   5 C       2.1792254 *  3.3257648    3.3620448    2.9931397 *  4.4360533  
   6 C       1.1110337 *  3.6420021    4.1060689    2.5902703 *  4.5989100  
   7 H       4.0076073    3.5393052    4.6839809    2.9812188 *  3.5178243  
   8 H       3.3043001    4.6293770    5.6237075    3.5638964    4.9692429  
   9 H       2.9049732 *  3.8591524    4.8731391    2.3482722 *  4.1774414  
  10 H       4.2416437    2.3368466 *  3.1868597    3.1043259    2.5056356 *
  11 H       3.8373992    3.8525677    4.0518624    4.2181780    4.6331885  
  12 H       4.2109748    2.8659457 *  2.6059649 *  3.8429449    3.7302891  
  13 H       2.7228417 *  4.3546831    4.2131008    4.0260619    5.4822393  
  14 H       2.3588769 *  2.8629634 *  2.6862285 *  2.5531733 *  4.0433411  
  15 H       1.8229444 *  4.5952236    5.0875091    3.6186592    5.4792420  
  16 H       0.0000000    4.0324596    4.4545337    2.5265279 *  5.0019272  
  17 B       4.0324596    0.0000000    1.1834256 *  1.9831952 *  1.1841573 *
  18 H       4.4545337    1.1834256 *  0.0000000    2.7307129 *  2.0045418 *
  19 H       2.5265279 *  1.9831952 *  2.7307129 *  0.0000000    2.7287339 *
  20 H       5.0019272    1.1841573 *  2.0045418 *  2.7287339 *  0.0000000  

  * ... LESS THAN  3.000


     ATOMIC BASIS SET
     ----------------
 THE CONTRACTED PRIMITIVE FUNCTIONS HAVE BEEN UNNORMALIZED
 THE CONTRACTED BASIS FUNCTIONS ARE NOW NORMALIZED TO UNITY

  SHELL TYPE  PRIMITIVE        EXPONENT          CONTRACTION COEFFICIENT(S)

 C         

      1   S       1            71.6168373    0.154328967295
      1   S       2            13.0450963    0.535328142282
      1   S       3             3.5305122    0.444634542185

      2   L       4             2.9412494   -0.099967229187    0.155916274999
      2   L       5             0.6834831    0.399512826089    0.607683718598
      2   L       6             0.2222899    0.700115468880    0.391957393099

 C         

      3   S       7            71.6168373    0.154328967295
      3   S       8            13.0450963    0.535328142282
      3   S       9             3.5305122    0.444634542185

      4   L      10             2.9412494   -0.099967229187    0.155916274999
      4   L      11             0.6834831    0.399512826089    0.607683718598
      4   L      12             0.2222899    0.700115468880    0.391957393099

 C         

      5   S      13            71.6168373    0.154328967295
      5   S      14            13.0450963    0.535328142282
      5   S      15             3.5305122    0.444634542185

      6   L      16             2.9412494   -0.099967229187    0.155916274999
      6   L      17             0.6834831    0.399512826089    0.607683718598
      6   L      18             0.2222899    0.700115468880    0.391957393099

 C         

      7   S      19            71.6168373    0.154328967295
      7   S      20            13.0450963    0.535328142282
      7   S      21             3.5305122    0.444634542185

      8   L      22             2.9412494   -0.099967229187    0.155916274999
      8   L      23             0.6834831    0.399512826089    0.607683718598
      8   L      24             0.2222899    0.700115468880    0.391957393099

 C         

      9   S      25            71.6168373    0.154328967295
      9   S      26            13.0450963    0.535328142282
      9   S      27             3.5305122    0.444634542185

     10   L      28             2.9412494   -0.099967229187    0.155916274999
     10   L      29             0.6834831    0.399512826089    0.607683718598
     10   L      30             0.2222899    0.700115468880    0.391957393099

 C         

     11   S      31            71.6168373    0.154328967295
     11   S      32            13.0450963    0.535328142282
     11   S      33             3.5305122    0.444634542185

     12   L      34             2.9412494   -0.099967229187    0.155916274999
     12   L      35             0.6834831    0.399512826089    0.607683718598
     12   L      36             0.2222899    0.700115468880    0.391957393099

 H         

     13   S      37             3.4252509    0.154328967295
     13   S      38             0.6239137    0.535328142282
     13   S      39             0.1688554    0.444634542185

 H         

     14   S      40             3.4252509    0.154328967295
     14   S      41             0.6239137    0.535328142282
     14   S      42             0.1688554    0.444634542185

 H         

     15   S      43             3.4252509    0.154328967295
     15   S      44             0.6239137    0.535328142282
     15   S      45             0.1688554    0.444634542185

 H         

     16   S      46             3.4252509    0.154328967295
     16   S      47             0.6239137    0.535328142282
     16   S      48             0.1688554    0.444634542185

 H         

     17   S      49             3.4252509    0.154328967295
     17   S      50             0.6239137    0.535328142282
     17   S      51             0.1688554    0.444634542185

 H         

     18   S      52             3.4252509    0.154328967295
     18   S      53             0.6239137    0.535328142282
     18   S      54             0.1688554    0.444634542185

 H         

     19   S      55             3.4252509    0.154328967295
     19   S      56             0.6239137    0.535328142282
     19   S      57             0.1688554    0.444634542185

 H         

     20   S      58             3.4252509    0.154328967295
     20   S      59             0.6239137    0.535328142282
     20   S      60             0.1688554    0.444634542185

 H         

     21   S      61             3.4252509    0.154328967295
     21   S      62             0.6239137    0.535328142282
     21   S      63             0.1688554    0.444634542185

 H         

     22   S      64             3.4252509    0.154328967295
     22   S      65             0.6239137    0.535328142282
     22   S      66             0.1688554    0.444634542185

 B         

     23   S      67            48.7911132    0.154328967295
     23   S      68             8.8873622    0.535328142282
     23   S      69             2.4052670    0.444634542185

     24   L      70             2.2369561   -0.099967229187    0.155916274999
     24   L      71             0.5198205    0.399512826089    0.607683718598
     24   L      72             0.1690618    0.700115468880    0.391957393099

 H         

     25   S      73             3.4252509    0.154328967295
     25   S      74             0.6239137    0.535328142282
     25   S      75             0.1688554    0.444634542185

 H         

     26   S      76             3.4252509    0.154328967295
     26   S      77             0.6239137    0.535328142282
     26   S      78             0.1688554    0.444634542185

 H         

     27   S      79             3.4252509    0.154328967295
     27   S      80             0.6239137    0.535328142282
     27   S      81             0.1688554    0.444634542185

 TOTAL NUMBER OF BASIS SET SHELLS             =   27
 NUMBER OF CARTESIAN GAUSSIAN BASIS FUNCTIONS =   48
 NUMBER OF ELECTRONS                          =   54
 CHARGE OF MOLECULE                           =    0
 SPIN MULTIPLICITY                            =    1
 NUMBER OF OCCUPIED ORBITALS (ALPHA)          =   27
 NUMBER OF OCCUPIED ORBITALS (BETA )          =   27
 TOTAL NUMBER OF ATOMS                        =   20
 THE NUCLEAR REPULSION ENERGY IS      302.7307990115

     $CONTRL OPTIONS
     ---------------
 SCFTYP=RHF          RUNTYP=OPTIMIZE     EXETYP=RUN     
 MPLEVL=       0     CITYP =NONE         CCTYP =NONE         VBTYP =NONE    
 DFTTYP=NONE         TDDFT =NONE    
 MULT  =       1     ICHARG=       0     NZVAR =       1     COORD =UNIQUE  
 PP    =NONE         RELWFN=NONE         LOCAL =NONE         NUMGRD=       F
 ISPHER=      -1     NOSYM =       0     MAXIT =      30     UNITS =ANGS    
 PLTORB=       F     MOLPLT=       F     AIMPAC=       F     FRIEND=        
 NPRINT=       7     IREST =       0     GEOM  =INPUT   
 NORMF =       0     NORMP =       0     ITOL  =      20     ICUT  =       9
 INTTYP=BEST         GRDTYP=BEST         QMTTOL= 1.0E-06

     $SYSTEM OPTIONS
     ---------------
  REPLICATED MEMORY=     1000000 WORDS (ON EVERY NODE).
 DISTRIBUTED MEMDDI=           0 MILLION WORDS IN AGGREGATE,
 MEMDDI DISTRIBUTED OVER   1 PROCESSORS IS           0 WORDS/PROCESSOR.
 TOTAL MEMORY REQUESTED ON EACH PROCESSOR=     1000000 WORDS.
 TIMLIM=      525600.00 MINUTES, OR     365.0 DAYS.
 PARALL= F  BALTYP=  DLB     KDIAG=    0  COREFL= F
 MXSEQ2=     300 MXSEQ3=     150  mem10=         0

          ----------------
          PROPERTIES INPUT
          ----------------

     MOMENTS            FIELD           POTENTIAL          DENSITY
 IEMOM =       1   IEFLD =       0   IEPOT =       0   IEDEN =       0
 WHERE =COMASS     WHERE =NUCLEI     WHERE =NUCLEI     WHERE =NUCLEI  
 OUTPUT=BOTH       OUTPUT=BOTH       OUTPUT=BOTH       OUTPUT=BOTH    
 IEMINT=       0   IEFINT=       0                     IEDINT=       0
                                                       MORB  =       0
          EXTRAPOLATION IN EFFECT
          SOSCF IN EFFECT
 ORBITAL PRINTING OPTION: NPREO=     1    48     2     1

     -------------------------------
     INTEGRAL TRANSFORMATION OPTIONS
     -------------------------------
     NWORD  =            0
     CUTOFF = 1.0E-09     MPTRAN =       0
     DIRTRF =       F     AOINTS =DUP     

          ----------------------
          INTEGRAL INPUT OPTIONS
          ----------------------
 NOPK  =       1 NORDER=       0 SCHWRZ=       T


 -----------------------------------------------
  STATISTICS ON AUTOMATIC COORDINATE GENERATION 
 -----------------------------------------------
  NUMBER OF USER SPECIFIED BONDS                             3
  NUMBER OF BONDS                                           21
  NUMBER OF ANGLES                                          43
  NUMBER OF TORSIONS                                        69
  NUMBER OF EXTRA COORD.                                     0
  NUMBER OF EXTRA COORD. FOR CONSTRAINTS                     0
  NUMBER OF CONSTRAINED COORD.                               3

  TOTAL NUMBER OF PRIMITIVES                               133
 -----------------------------------------------

   --- ENCODED Z MATRIX ---
 COORD  TYPE   I   J   K   L   M   N
    1      1    2  19
    2      1    3  17
    3      1   17  19
    4      1    1   7
    5      1    1   2
    6      1    1   9
    7      1    1   8
    8      1    2   6
    9      1    2   3
   10      1    3   4
   11      1    3  10
   12      1    4  12
   13      1    4  11
   14      1    4   5
   15      1    5  14
   16      1    5  13
   17      1    5   6
   18      1    6  15
   19      1    6  16
   20      1   17  20
   21      1   17  18
   22      2    1   2   3
   23      2    1   2   6
   24      2    1   2  19
   25      2    2   3  10
   26      2    2   3  17
   27      2    2   6  16
   28      2    2   1   9
   29      2    2   1   8
   30      2    2   6   5
   31      2    2   1   7
   32      2    2  19  17
   33      2    2   3   4
   34      2    2   6  15
   35      2    3   2  19
   36      2    3  17  18
   37      2    3  17  20
   38      2    3  17  19
   39      2    3   4   5
   40      2    3   4  12
   41      2    3   2   6
   42      2    3   4  11
   43      2    4   3  17
   44      2    4   3  10
   45      2    4   5   6
   46      2    4   5  13
   47      2    4   5  14
   48      2    5   4  11
   49      2    5   4  12
   50      2    5   6  16
   51      2    5   6  15
   52      2    6   2  19
   53      2    6   5  13
   54      2    6   5  14
   55      2    7   1   8
   56      2    7   1   9
   57      2    8   1   9
   58      2   10   3  17
   59      2   11   4  12
   60      2   13   5  14
   61      2   15   6  16
   62      2   18  17  20
   63      2   18  17  19
   64      2   19  17  20
   65      3    1   2   6  16
   66      3    1   2   6  15
   67      3    1   2   3  10
   68      3    1   2   6   5
   69      3    1   2   3   4
   70      3    1   2  19  17
   71      3    1   2   3  17
   72      3    2   3   4   5
   73      3    2   3   4  11
   74      3    2   3   4  12
   75      3    2   3  17  18
   76      3    2  19  17  18
   77      3    2  19  17  20
   78      3    2   3  17  20
   79      3    2  19  17   3
   80      3    2   3  17  19
   81      3    2   6   5  13
   82      3    2   6   5  14
   83      3    2   6   5   4
   84      3    3   2   1   8
   85      3    3   2   6  15
   86      3    3   2   6  16
   87      3    3   2  19  17
   88      3    3   2   1   7
   89      3    3   2   1   9
   90      3    3   4   5   6
   91      3    3   4   5  13
   92      3    3   4   5  14
   93      3    3   2   6   5
   94      3    4   5   6  16
   95      3    4   5   6  15
   96      3    4   3   2  19
   97      3    4   3   2   6
   98      3    4   3  17  19
   99      3    4   3  17  20
  100      3    4   3  17  18
  101      3    5   4   3  17
  102      3    5   4   3  10
  103      3    5   6   2  19
  104      3    6   2   1   7
  105      3    6   5   4  11
  106      3    6   5   4  12
  107      3    6   2  19  17
  108      3    6   2   3  17
  109      3    6   2   3  10
  110      3    6   2   1   8
  111      3    6   2   1   9
  112      3    7   1   2  19
  113      3    8   1   2  19
  114      3    9   1   2  19
  115      3   10   3   4  11
  116      3   10   3   4  12
  117      3   10   3   2  19
  118      3   10   3  17  19
  119      3   10   3  17  20
  120      3   10   3  17  18
  121      3   11   4   5  14
  122      3   11   4   5  13
  123      3   11   4   3  17
  124      3   12   4   5  14
  125      3   12   4   5  13
  126      3   12   4   3  17
  127      3   13   5   6  15
  128      3   13   5   6  16
  129      3   14   5   6  15
  130      3   14   5   6  16
  131      3   15   6   2  19
  132      3   16   6   2  19
  133      3   17   3   2  19

          INDEP./SYM. INTERNAL COORDINATES
          --------------------------------
 CRD  1=   1.0000 (  1)
 CRD  2=   1.0000 (  2)
 CRD  3=   1.0000 (  3)
 CRD  4=   0.1424 (  8) -0.1208 (  9)  0.1941 ( 24)  0.1538 ( 26)  0.3795 ( 28)
          -0.3209 ( 29) -0.1103 ( 33) -0.1186 ( 35) -0.1043 ( 38)  0.1814 ( 39)
          -0.1345 ( 42) -0.1519 ( 45)  0.1077 ( 54)  0.1399 ( 65)  0.1324 ( 66)
          -0.1242 ( 67)  0.2208 ( 68) -0.2186 ( 69) -0.1716 ( 71)  0.1310 ( 74)
          -0.1220 ( 81) -0.1025 ( 82) -0.1146 ( 83) -0.1043 ( 97) -0.1824 (104)
           0.1055 (113) -0.1105 (131) -0.1029 (132)
 CRD  5=   0.2280 (  8) -0.1036 (  9) -0.1216 ( 10) -0.1157 ( 13)  0.1530 ( 26)
           0.1458 ( 27)  0.1402 ( 29) -0.1239 ( 35) -0.1047 ( 38)  0.1515 ( 39)
          -0.1346 ( 40) -0.1248 ( 43)  0.1428 ( 47) -0.1375 ( 48) -0.1239 ( 50)
           0.1227 ( 51)  0.1520 ( 52) -0.1072 ( 54) -0.1057 ( 58) -0.1297 ( 68)
           0.1775 ( 69) -0.1433 ( 72) -0.1290 ( 76)  0.1517 ( 77) -0.1509 ( 93)
           0.1959 ( 97) -0.2459 (101) -0.2193 (103)  0.1076 (108)  0.1600 (112)
           0.1188 (113)  0.1069 (114) -0.1591 (123) -0.1523 (126) -0.1275 (131)
          -0.1158 (132)
 CRD  6=   0.2088 (  8)  0.3266 (  9)  0.1331 ( 14)  0.1011 ( 18)  0.1290 ( 19)
           0.1108 ( 27)  0.1490 ( 29) -0.2864 ( 30) -0.1816 ( 31)  0.1066 ( 32)
           0.1704 ( 34) -0.1167 ( 35)  0.1640 ( 36)  0.1271 ( 37) -0.1401 ( 39)
           0.1376 ( 41)  0.1179 ( 42)  0.3192 ( 45) -0.1091 ( 47)  0.1238 ( 49)
           0.1043 ( 50) -0.1643 ( 53)  0.1109 ( 60) -0.1423 ( 61) -0.1858 ( 62)
           0.1734 ( 76) -0.1339 ( 77) -0.1148 (107)
 CRD  7=  -0.1055 (  6)  0.2673 (  8) -0.3164 ( 10) -0.1862 ( 12) -0.2133 ( 14)
          -0.1197 ( 17) -0.4299 ( 28)  0.1421 ( 29)  0.2056 ( 31)  0.1155 ( 36)
           0.1986 ( 39) -0.1331 ( 40) -0.1282 ( 55)  0.1156 ( 57)  0.1077 ( 59)
          -0.1064 ( 62)  0.1056 ( 72)  0.1485 ( 75) -0.1377 ( 77) -0.1038 ( 90)
           0.1035 (101)  0.1207 (107)
 CRD  8=   0.1285 (  8)  0.1871 (  9) -0.2614 ( 10) -0.2062 ( 14)  0.1224 ( 17)
          -0.1217 ( 24)  0.1231 ( 25) -0.1118 ( 26)  0.1315 ( 27)  0.1783 ( 28)
          -0.3409 ( 29) -0.1411 ( 30) -0.2300 ( 37) -0.1596 ( 44)  0.1470 ( 45)
          -0.1678 ( 46)  0.1003 ( 52)  0.1269 ( 55) -0.1006 ( 56)  0.1389 ( 62)
          -0.1130 ( 73)  0.2115 ( 77) -0.1321 ( 81)  0.1549 ( 99)  0.1259 (100)
           0.1284 (103)  0.1025 (108)  0.1019 (131)
 CRD  9=   0.1734 (  4) -0.1088 (  7)  0.2739 (  8)  0.1406 ( 10)  0.3626 ( 14)
           0.1070 ( 19) -0.1853 ( 28) -0.3329 ( 29)  0.5358 ( 31) -0.1526 ( 56)
           0.2186 ( 57) -0.1117 ( 70) -0.1017 (107)
 CRD 10=  -0.1295 ( 10)  0.2881 ( 14)  0.1798 ( 16)  0.5627 ( 17)  0.1200 ( 19)
          -0.1422 ( 28)  0.2172 ( 29) -0.1328 ( 34) -0.1488 ( 42) -0.1606 ( 45)
           0.1308 ( 50)  0.1149 ( 51)  0.1366 ( 53)  0.1036 ( 54)  0.1062 ( 56)
          -0.1139 ( 60)  0.1044 ( 66) -0.1050 ( 83)  0.1038 ( 85)  0.1157 ( 92)
          -0.1070 ( 94) -0.1017 (122)  0.1202 (124)
 CRD 11=  -0.1303 (  9)  0.1766 ( 10) -0.3675 ( 14)  0.3595 ( 17)  0.1148 ( 18)
          -0.1028 ( 25) -0.1448 ( 29) -0.1042 ( 30)  0.1016 ( 31)  0.1505 ( 37)
           0.2160 ( 42) -0.2335 ( 46) -0.1833 ( 48)  0.1000 ( 50)  0.1211 ( 51)
           0.2239 ( 53) -0.1393 ( 62)  0.1643 ( 73) -0.1450 ( 77) -0.1839 ( 91)
           0.1104 ( 95)  0.1350 (105)  0.1372 (121)  0.1145 (123) -0.1366 (125)
          -0.1179 (128)  0.1159 (129)
 CRD 12=  -0.1284 ( 10)  0.1343 ( 13)  0.2464 ( 14) -0.1107 ( 19)  0.1864 ( 28)
          -0.1326 ( 29)  0.1450 ( 36)  0.1293 ( 37) -0.2223 ( 40)  0.1168 ( 42)
          -0.1090 ( 45)  0.2287 ( 47)  0.1913 ( 49) -0.1367 ( 50)  0.1356 ( 53)
          -0.1873 ( 54)  0.1065 ( 55)  0.1273 ( 58) -0.1219 ( 62)  0.1083 ( 67)
           0.1048 ( 74)  0.1088 ( 75)  0.1670 ( 76) -0.1956 ( 77) -0.1828 ( 92)
          -0.1066 ( 93)  0.1240 (100)  0.1515 (106)  0.1176 (109)  0.1714 (126)
 CRD 13=   0.1981 (  5) -0.2000 (  8) -0.1572 (  9) -0.1949 ( 10) -0.2518 ( 11)
          -0.1217 ( 20)  0.1953 ( 21) -0.1079 ( 27)  0.1702 ( 31)  0.3254 ( 36)
          -0.2849 ( 37)  0.1120 ( 49) -0.1000 ( 56)  0.1145 ( 74)  0.3549 ( 76)
           0.3520 ( 77)
 CRD 14=  -0.1572 (  6) -0.1761 (  8) -0.1580 ( 11) -0.1011 ( 15) -0.1325 ( 17)
          -0.2322 ( 18)  0.1952 ( 27) -0.1906 ( 28)  0.1140 ( 29)  0.1418 ( 31)
          -0.2409 ( 34)  0.1092 ( 45) -0.1747 ( 46)  0.1124 ( 47) -0.1666 ( 54)
          -0.1551 ( 55)  0.1357 ( 65)  0.1313 ( 66)  0.1394 ( 68) -0.1009 ( 78)
          -0.2099 ( 81) -0.2119 ( 82) -0.1034 ( 83)  0.1298 ( 90)  0.1349 ( 95)
          -0.1020 (101) -0.1068 (102) -0.1207 (104) -0.1268 (112)
 CRD 15=   0.1026 (  8)  0.1981 ( 10)  0.5101 ( 11)  0.1536 ( 13)  0.1570 ( 15)
           0.1272 ( 19) -0.2029 ( 20)  0.1526 ( 21)  0.1026 ( 27)  0.1666 ( 36)
          -0.2654 ( 37)  0.1181 ( 47) -0.1068 ( 71)  0.1632 ( 76)  0.2582 ( 77)
           0.1095 ( 94)  0.1060 (101) -0.1033 (108)
 CRD 16=  -0.2488 ( 11)  0.2485 ( 13)  0.1697 ( 15) -0.1648 ( 16) -0.1322 ( 18)
           0.1572 ( 19)  0.2019 ( 20) -0.1320 ( 21) -0.1960 ( 36)  0.1229 ( 43)
          -0.1254 ( 44) -0.1419 ( 46)  0.1533 ( 47)  0.1024 ( 49) -0.1279 ( 69)
           0.1321 ( 74) -0.1843 ( 76)  0.2074 ( 84)  0.1876 ( 88)  0.2091 ( 89)
           0.1429 ( 94)  0.1295 ( 95) -0.1078 ( 96)  0.1326 ( 99)  0.1167 (104)
           0.1365 (110)  0.1382 (111)  0.1578 (112)  0.1776 (113)  0.1793 (114)
 CRD 17=   0.4822 ( 15) -0.3191 ( 16)  0.2449 ( 18)  0.1534 ( 27)  0.1840 ( 40)
          -0.1405 ( 42)  0.1049 ( 48) -0.1112 ( 49) -0.1035 ( 50)  0.1410 ( 51)
          -0.1303 ( 53)  0.1773 ( 54) -0.1018 ( 68)  0.1055 ( 83)  0.1206 ( 92)
           0.2020 ( 94)  0.1706 ( 95) -0.2302 (105) -0.2438 (106)
 CRD 18=   0.1219 (  4) -0.1065 (  5)  0.1150 (  6)  0.1728 (  7)  0.1096 (  8)
           0.2396 ( 10)  0.2395 ( 12)  0.1879 ( 21) -0.1056 ( 25) -0.1566 ( 28)
          -0.1320 ( 31) -0.1739 ( 51)  0.1057 ( 52)  0.1608 ( 56)  0.1134 ( 57)
           0.1055 ( 63)  0.1261 ( 70)  0.1074 ( 80) -0.1506 ( 85) -0.1005 ( 86)
           0.1048 ( 87) -0.1145 ( 96)  0.2136 ( 98)  0.1774 ( 99)  0.1071 (100)
          -0.1502 (104)  0.1883 (107) -0.1416 (110) -0.1384 (111)  0.2045 (118)
           0.1683 (119) -0.1326 (131) -0.1026 (133)
 CRD 19=  -0.1336 (  4) -0.1475 (  6) -0.1149 (  7) -0.2698 ( 12)  0.3008 ( 13)
           0.1028 ( 29) -0.1257 ( 46)  0.1066 ( 48) -0.1115 ( 49)  0.1610 ( 50)
          -0.1323 ( 51)  0.1386 ( 53) -0.1152 ( 58)  0.1207 ( 62) -0.1081 ( 65)
          -0.1019 ( 66) -0.1263 ( 67) -0.1076 ( 76) -0.1447 ( 84) -0.1334 ( 85)
          -0.1396 ( 86) -0.1456 ( 88) -0.1396 ( 89) -0.1503 ( 91) -0.1350 ( 92)
           0.1302 (102) -0.1770 (104) -0.1761 (110) -0.1711 (111) -0.1555 (112)
          -0.1545 (113) -0.1495 (114) -0.1162 (117) -0.1163 (131) -0.1224 (132)
 CRD 20=   0.3569 (  4)  0.3429 (  6)  0.3198 (  7) -0.1842 ( 11) -0.2348 ( 12)
           0.2138 ( 13)  0.1132 ( 16) -0.1241 ( 28) -0.1710 ( 29) -0.1191 ( 31)
           0.1903 ( 48) -0.1584 ( 49)  0.1528 ( 55)  0.1201 ( 56)  0.1519 ( 57)
          -0.1584 ( 73) -0.1357 ( 74)  0.1123 ( 85)  0.1103 ( 86)  0.1034 (102)
          -0.1918 (123) -0.1692 (126)
 CRD 21=  -0.3114 (  4) -0.2180 (  5) -0.2885 (  6) -0.3053 (  7)  0.1294 ( 10)
          -0.1661 ( 11)  0.2059 ( 13)  0.1384 ( 16)  0.1008 ( 40)  0.1749 ( 48)
          -0.1178 ( 49) -0.1337 ( 50) -0.1165 ( 62) -0.1374 ( 73) -0.1033 ( 74)
           0.1227 ( 85)  0.1409 ( 86)  0.1111 ( 98)  0.1517 ( 99)  0.1089 (107)
          -0.1306 (115)  0.1116 (118)  0.1522 (119) -0.1920 (123) -0.1579 (126)
           0.1087 (132)
 CRD 22=  -0.1929 (  6)  0.1782 (  7)  0.1126 ( 13)  0.3650 ( 18) -0.3041 ( 19)
           0.1641 ( 20) -0.1325 ( 36) -0.1366 ( 37) -0.1153 ( 40)  0.1246 ( 42)
          -0.1262 ( 50)  0.1384 ( 51)  0.2439 ( 62)  0.2045 ( 65)  0.2174 ( 66)
          -0.1076 ( 67) -0.1261 ( 76)  0.1594 ( 77)  0.1018 ( 81)  0.1080 ( 82)
           0.1281 ( 85)  0.1152 ( 86) -0.1402 (104) -0.1089 (110) -0.1023 (111)
           0.1420 (131)  0.1291 (132)
 CRD 23=  -0.1001 ( 18)  0.5837 ( 20)  0.6847 ( 21)  0.1858 ( 62) -0.1041 ( 64)
          -0.1074 ( 99) -0.1051 (119)
 CRD 24=  -0.2514 (  4)  0.1072 (  7) -0.3378 ( 12) -0.2127 ( 13)  0.1508 ( 16)
           0.1392 ( 18) -0.3457 ( 20)  0.1968 ( 21)  0.1972 ( 63) -0.2259 ( 64)
          -0.1812 ( 75) -0.1189 ( 76) -0.1278 ( 77) -0.1810 ( 78)  0.1652 ( 84)
           0.1046 ( 98) -0.1356 ( 99) -0.1359 (100)  0.1483 (113) -0.1890 (119)
          -0.1893 (120)
 CRD 25=  -0.5551 (  4)  0.2465 (  6)  0.3502 (  7)  0.1187 ( 12) -0.1492 ( 18)
          -0.1476 ( 19)  0.1159 ( 20)  0.1044 ( 31) -0.1306 ( 55) -0.1994 ( 56)
           0.3263 ( 57)  0.1289 ( 84) -0.2125 ( 89)  0.1448 (110) -0.1966 (111)
           0.1375 (113) -0.2040 (114)
 CRD 26=   0.5543 (  6) -0.4935 (  7)  0.1185 ( 13) -0.3105 ( 55)  0.2763 ( 56)
           0.1103 ( 84) -0.2239 ( 88) -0.2334 (104)  0.1008 (110) -0.2230 (112)
           0.1112 (113)
 CRD 27=  -0.1333 (  4) -0.2677 ( 15) -0.2351 ( 16)  0.5226 ( 18)  0.5850 ( 19)
           0.2084 ( 61)  0.1056 ( 86)  0.1370 (127) -0.1130 (130)
 CRD 28=   0.2855 ( 12)  0.2278 ( 13) -0.4273 ( 15) -0.3647 ( 16) -0.3684 ( 19)
          -0.1055 ( 20) -0.1063 ( 42)  0.1055 ( 53)  0.1038 ( 59) -0.1416 ( 60)
           0.1086 ( 89) -0.1058 ( 91) -0.1073 (116) -0.1037 (119) -0.2000 (122)
          -0.1033 (125) -0.1612 (129) -0.1149 (130)
 CRD 29=   0.1165 ( 11) -0.3913 ( 13)  0.3097 ( 18) -0.1231 ( 19)  0.1780 ( 20)
          -0.1629 ( 21)  0.1293 ( 40) -0.1204 ( 46)  0.1036 ( 47) -0.1333 ( 54)
          -0.1094 ( 55) -0.1247 ( 59) -0.1335 ( 63)  0.1306 ( 64)  0.1111 ( 75)
           0.1153 ( 78)  0.1193 ( 84)  0.1146 ( 89)  0.1293 ( 99)  0.1251 (100)
          -0.1046 (104) -0.1192 (106) -0.1356 (115)  0.1027 (117)  0.1034 (119)
          -0.1316 (121) -0.2164 (124) -0.1630 (125) -0.1085 (127) -0.1409 (128)
          -0.1031 (129) -0.1356 (130)
 CRD 30=   0.4719 ( 12)  0.2606 ( 13)  0.2791 ( 15)  0.4511 ( 16)  0.2287 ( 18)
           0.1040 ( 19) -0.1056 ( 54)  0.1772 ( 59)  0.1649 ( 60) -0.1100 ( 92)
          -0.1021 (105) -0.2249 (121) -0.1332 (128)
 CRD 31=  -0.2328 ( 11)  0.1444 ( 12) -0.2609 ( 13) -0.1024 ( 20)  0.1049 ( 47)
          -0.1358 ( 58)  0.1188 ( 62)  0.1330 ( 73)  0.1299 ( 74) -0.1312 ( 82)
          -0.1195 ( 84)  0.1671 ( 85)  0.1780 ( 86) -0.1041 ( 89)  0.1040 ( 93)
          -0.1241 ( 95) -0.1238 ( 97) -0.1102 ( 99)  0.1417 (102)  0.1144 (104)
          -0.2106 (109)  0.1803 (115)  0.1772 (116) -0.1449 (117)  0.1034 (120)
          -0.1014 (125) -0.1707 (127) -0.1443 (128) -0.2073 (129) -0.1809 (130)
 CRD 32=  -0.1153 (  7) -0.1308 (  8)  0.1770 (  9)  0.1697 ( 11)  0.1008 ( 18)
          -0.1040 ( 19)  0.1055 ( 20)  0.1519 ( 21)  0.1662 ( 23) -0.2919 ( 62)
           0.2284 ( 63)  0.1852 ( 64) -0.1191 ( 70) -0.2872 ( 75)  0.1912 ( 78)
           0.2095 ( 99) -0.2689 (100)  0.1104 (102)  0.1203 (115)  0.1318 (116)
           0.1136 (119) -0.3648 (120)
 CRD 33=  -0.1385 ( 12)  0.1786 ( 13)  0.3605 ( 15) -0.2597 ( 16)  0.1095 ( 18)
          -0.1013 ( 19) -0.1191 ( 27) -0.1325 ( 81) -0.1152 ( 82)  0.1150 ( 90)
           0.1669 ( 91)  0.1435 ( 92) -0.1934 ( 94) -0.1571 ( 95)  0.1560 (105)
           0.1918 (106)  0.1845 (121)  0.2080 (122)  0.2203 (124)  0.2437 (125)
          -0.1964 (127) -0.2327 (128) -0.1791 (129) -0.2154 (130)
 CRD 34=   0.2075 (  4)  0.2327 (  6)  0.1692 (  7) -0.1108 (  8) -0.1960 (  9)
           0.2819 ( 11) -0.1553 ( 24)  0.1790 ( 28)  0.1746 ( 29)  0.1828 ( 31)
           0.1189 ( 41)  0.1107 ( 51) -0.1564 ( 55) -0.2099 ( 56) -0.1838 ( 57)
          -0.1684 ( 76) -0.1152 ( 77)  0.1120 ( 78)  0.1136 ( 80)  0.1087 ( 87)
          -0.1422 ( 96)  0.1276 (103) -0.1445 (117)  0.1816 (118)  0.1800 (119)
          -0.1100 (121)  0.1863 (131) -0.1077 (133)
 CRD 35=  -0.1155 (  6) -0.1187 (  7) -0.2231 (  8)  0.1799 (  9)  0.3646 ( 11)
          -0.1237 ( 21)  0.1239 ( 23)  0.1132 ( 26)  0.1238 ( 32) -0.1567 ( 35)
           0.1114 ( 48)  0.1069 ( 49)  0.1469 ( 57) -0.1084 ( 58)  0.1319 ( 61)
           0.1121 ( 62) -0.1388 ( 64)  0.1010 ( 74)  0.1123 ( 75) -0.1570 ( 78)
           0.1766 (100) -0.1060 (103)  0.1090 (107)  0.1543 (112)  0.1843 (113)
           0.1197 (114)  0.1291 (116) -0.1776 (119) -0.1841 (123)  0.1555 (129)
          -0.1454 (131)
 CRD 36=   0.1168 (  8)  0.2292 ( 12) -0.2939 ( 13)  0.2746 ( 15) -0.2314 ( 16)
          -0.1814 ( 18)  0.1447 ( 19) -0.1240 ( 27) -0.1107 ( 40) -0.1216 ( 58)
           0.1117 ( 65)  0.1214 ( 66) -0.2245 ( 67) -0.1353 ( 73) -0.1569 ( 74)
           0.1246 ( 76) -0.1103 ( 77)  0.1593 ( 81)  0.1406 ( 82)  0.1058 ( 84)
           0.1058 ( 89) -0.1305 ( 91) -0.1071 ( 93)  0.1028 ( 97)  0.1387 (102)
          -0.1158 (104)  0.1337 (106)  0.1115 (108) -0.1788 (117)
 CRD 37=   0.1036 (  4) -0.1483 (  5) -0.1119 (  8)  0.1587 (  9) -0.1650 ( 15)
           0.2272 ( 16)  0.1203 ( 18) -0.1246 ( 19)  0.1402 ( 20)  0.1530 ( 36)
           0.1492 ( 40) -0.1245 ( 55) -0.1533 ( 58) -0.1049 ( 66) -0.1951 ( 67)
          -0.1021 ( 74)  0.2020 ( 76) -0.1324 ( 77) -0.1379 ( 82)  0.1068 ( 84)
          -0.1536 ( 85) -0.1021 ( 86)  0.1464 ( 91)  0.1683 ( 92)  0.1315 (102)
          -0.1491 (109)  0.2269 (115)  0.1277 (116) -0.2422 (117)  0.1192 (121)
 CRD 38=  -0.2295 (  4)  0.4206 (  5) -0.1496 (  6) -0.1156 (  7)  0.1252 ( 11)
          -0.1450 ( 12)  0.2174 ( 20) -0.1246 ( 21) -0.1330 ( 25) -0.1694 ( 28)
          -0.1684 ( 29) -0.1834 ( 31) -0.1306 ( 42)  0.1318 ( 44)  0.1870 ( 55)
           0.2171 ( 56)  0.1296 ( 57)  0.1053 ( 59) -0.1102 ( 67) -0.1006 ( 75)
           0.1119 ( 91) -0.1120 (105) -0.1429 (117)  0.1629 (118) -0.1955 (121)
           0.1160 (125)  0.1269 (131)
 CRD 39=  -0.1617 (  4)  0.1104 (  7)  0.1614 (  8) -0.3303 (  9)  0.1569 ( 11)
           0.1569 ( 12) -0.1312 ( 17) -0.1098 ( 19)  0.1375 ( 20)  0.1316 ( 22)
          -0.1208 ( 23)  0.1186 ( 27) -0.1815 ( 46) -0.1108 ( 47)  0.1402 ( 48)
           0.1207 ( 49)  0.1506 ( 53)  0.1229 ( 54) -0.1212 ( 57) -0.1520 ( 59)
          -0.1290 ( 66) -0.1283 ( 73)  0.1195 ( 74)  0.1183 ( 76) -0.1047 ( 78)
          -0.1816 ( 81)  0.1127 ( 92)  0.1387 (111) -0.1286 (113)  0.1723 (116)
          -0.1113 (119) -0.1011 (120)  0.1239 (121) -0.1720 (123)  0.1128 (124)
          -0.1305 (127)  0.1082 (129)  0.1752 (130)
 CRD 40=   0.1789 (  5)  0.1330 (  8)  0.1068 ( 10) -0.1180 ( 11) -0.1706 ( 17)
          -0.3389 ( 20)  0.3761 ( 21)  0.1238 ( 25) -0.1858 ( 34)  0.1313 ( 37)
           0.1394 ( 50)  0.1189 ( 60) -0.1930 ( 63)  0.1785 ( 64) -0.1506 ( 65)
           0.1658 ( 75) -0.1028 ( 77)  0.1417 ( 78) -0.1044 ( 81) -0.1394 ( 86)
           0.1263 ( 95) -0.1130 ( 98) -0.1341 (118) -0.1345 (128)  0.2011 (129)
          -0.1093 (132)
 CRD 41=  -0.2237 (  5)  0.1163 (  7) -0.1213 (  9)  0.2516 ( 10)  0.1067 ( 11)
          -0.3113 ( 14)  0.2313 ( 17)  0.1069 ( 19)  0.1286 ( 21) -0.1528 ( 42)
          -0.1044 ( 44)  0.1406 ( 46)  0.1381 ( 47) -0.1468 ( 53) -0.1752 ( 54)
          -0.1235 ( 61)  0.1677 ( 91)  0.1040 (102)  0.1677 (116) -0.1477 (118)
          -0.1083 (119) -0.2359 (121)  0.1786 (125)  0.1487 (128) -0.1558 (129)
 CRD 42=   0.2518 (  5) -0.1567 (  7) -0.2683 (  8) -0.1268 (  9) -0.1192 ( 10)
           0.1635 ( 11) -0.1329 ( 14)  0.1701 ( 16) -0.2063 ( 20)  0.2255 ( 21)
           0.1317 ( 27)  0.1821 ( 34) -0.1097 ( 36)  0.1293 ( 37) -0.1177 ( 50)
           0.1323 ( 55) -0.1504 ( 60) -0.1037 ( 63)  0.1097 ( 64)  0.1641 ( 65)
          -0.1001 ( 67)  0.1376 ( 88)  0.1065 ( 94) -0.1127 ( 95) -0.1217 (107)
           0.1093 (108) -0.1015 (110) -0.1042 (111)  0.1153 (121)  0.1226 (124)
          -0.1065 (127)  0.1127 (128) -0.2180 (129)  0.1298 (132)
 CRD 43=   0.1729 (  5) -0.2551 (  9) -0.1520 ( 10)  0.1230 ( 11)  0.1722 ( 12)
           0.1157 ( 16) -0.1303 ( 17)  0.1622 ( 25)  0.1640 ( 40)  0.1979 ( 42)
          -0.2007 ( 44)  0.1301 ( 46)  0.1083 ( 47) -0.1485 ( 49)  0.1146 ( 50)
           0.1221 ( 51) -0.1313 ( 59) -0.1091 ( 60) -0.1069 ( 65) -0.1123 ( 82)
           0.1271 ( 85)  0.1147 ( 98)  0.1050 (102)  0.1673 (105) -0.1354 (106)
          -0.1095 (118) -0.1724 (119) -0.1368 (120)  0.1933 (121)  0.2150 (122)
          -0.1093 (124) -0.1423 (126) -0.1118 (129) -0.1566 (130)  0.1222 (131)
 CRD 44=  -0.3179 (  6)  0.2767 (  7) -0.1399 (  8) -0.1042 ( 13)  0.1036 ( 15)
          -0.1156 ( 24)  0.1216 ( 28) -0.1606 ( 29) -0.2122 ( 55)  0.2273 ( 56)
          -0.1731 ( 66)  0.1191 ( 67) -0.1153 ( 68)  0.1007 ( 69)  0.1561 ( 71)
          -0.3220 ( 88) -0.1141 ( 91) -0.1690 (104)  0.2043 (110)  0.1910 (111)
          -0.2444 (112)  0.1289 (113)  0.1156 (114) -0.1210 (116)  0.1091 (119)
           0.1042 (128)
 CRD 45=   0.1963 (  4) -0.1175 (  6) -0.1126 (  7) -0.1420 ( 11)  0.1305 ( 12)
          -0.1901 ( 14) -0.1537 ( 17)  0.1318 ( 19) -0.1490 ( 22)  0.1333 ( 23)
          -0.1991 ( 31) -0.1498 ( 33)  0.1135 ( 39) -0.1183 ( 40)  0.1180 ( 44)
           0.1290 ( 48)  0.1639 ( 57) -0.1341 ( 59) -0.1738 ( 61) -0.1120 ( 65)
          -0.1052 ( 70) -0.1684 ( 73)  0.1202 ( 74)  0.1284 ( 84) -0.1188 ( 86)
          -0.1394 ( 89) -0.1088 ( 98) -0.1617 ( 99) -0.1365 (100)  0.1377 (110)
          -0.1300 (111)  0.1380 (113) -0.1298 (114) -0.2174 (115)  0.2005 (126)
          -0.1011 (127) -0.1120 (129)  0.1409 (131)
 CRD 46=  -0.3096 (  4) -0.1294 (  5)  0.1515 (  6)  0.1522 (  7)  0.1047 (  9)
          -0.1271 ( 14) -0.2984 ( 22)  0.3081 ( 23)  0.1397 ( 55)  0.1484 ( 56)
          -0.2334 ( 57) -0.3079 ( 70) -0.2082 ( 84)  0.1752 ( 89) -0.1983 (110)
           0.1851 (111) -0.1503 (113)  0.2331 (114) -0.1254 (115)
 CRD 47=   0.1034 (  8) -0.1054 ( 12)  0.2728 ( 13) -0.2569 ( 18)  0.1651 ( 19)
          -0.1343 ( 27)  0.1494 ( 40) -0.1091 ( 47) -0.1230 ( 48)  0.1063 ( 49)
          -0.1173 ( 50)  0.1033 ( 52)  0.1058 ( 54) -0.1277 ( 59)  0.1415 ( 65)
           0.1067 ( 71) -0.1131 ( 72)  0.1440 ( 74)  0.1030 ( 82)  0.1156 ( 92)
          -0.1116 ( 93) -0.1985 ( 94) -0.1188 ( 95)  0.1473 ( 97) -0.1164 (101)
          -0.1510 (104) -0.2307 (106)  0.1586 (108)  0.1086 (109)  0.1683 (116)
          -0.1643 (124) -0.2513 (125)  0.1407 (126) -0.1597 (128) -0.1077 (130)
           0.1394 (132)
 CRD 48=   0.1013 (  5) -0.1823 (  9) -0.1694 ( 16)  0.3342 ( 17) -0.1036 ( 19)
          -0.2073 ( 22) -0.1171 ( 24)  0.1377 ( 25)  0.1453 ( 27) -0.1049 ( 31)
          -0.1103 ( 33)  0.1197 ( 39)  0.2191 ( 41) -0.1210 ( 45)  0.1210 ( 46)
          -0.1794 ( 51) -0.1162 ( 54)  0.1179 ( 60)  0.1128 ( 61)  0.1169 ( 65)
          -0.1643 ( 66) -0.1216 ( 70) -0.1074 ( 83) -0.1640 ( 85)  0.1173 ( 86)
          -0.1200 ( 92)  0.1415 (103)  0.1270 (105) -0.1380 (107)  0.1396 (122)
          -0.2170 (124)  0.1144 (130)  0.2154 (132)
 CRD 49=   0.1090 (  4) -0.1582 (  5)  0.2613 (  8) -0.3292 ( 10)  0.1348 ( 11)
           0.1559 ( 12)  0.1548 ( 17) -0.1278 ( 19)  0.1367 ( 22) -0.2160 ( 25)
          -0.1173 ( 31)  0.1089 ( 42)  0.1030 ( 44) -0.1008 ( 53) -0.1221 ( 59)
           0.1163 ( 61) -0.1359 ( 75) -0.1314 ( 78) -0.1472 ( 80) -0.1421 ( 87)
          -0.1256 ( 92)  0.1006 ( 95)  0.1189 (105) -0.1290 (114) -0.1290 (115)
           0.1123 (119)  0.1078 (120)  0.2028 (122) -0.1261 (124)  0.1417 (127)
           0.1399 (133)
 CRD 50=  -0.1811 (  8) -0.2276 ( 10)  0.2348 ( 14) -0.1978 ( 16)  0.1700 ( 19)
           0.1017 ( 23)  0.1830 ( 30) -0.1084 ( 41) -0.1946 ( 45) -0.1008 ( 47)
          -0.1051 ( 49)  0.1013 ( 53)  0.2026 ( 60) -0.2121 ( 61)  0.1105 ( 66)
          -0.1055 ( 81)  0.1947 ( 82)  0.1059 ( 85) -0.1276 ( 92) -0.2196 ( 95)
           0.1392 (105)  0.1673 (122) -0.1732 (124) -0.3127 (127)  0.2993 (130)
          -0.1195 (132)
 CRD 51=  -0.2066 (  5)  0.1286 (  8) -0.1841 (  9)  0.1211 ( 11) -0.1455 ( 12)
           0.1600 ( 14)  0.1307 ( 15) -0.1505 ( 17) -0.1304 ( 22)  0.1719 ( 23)
          -0.1623 ( 31)  0.1518 ( 43) -0.1419 ( 48)  0.1131 ( 53)  0.1340 ( 59)
          -0.1090 ( 60) -0.2140 ( 70)  0.1751 ( 71)  0.1865 ( 73) -0.1283 ( 78)
          -0.1161 ( 83)  0.1173 ( 93) -0.1341 ( 96) -0.1004 ( 97)  0.1346 (100)
          -0.1226 (101) -0.1167 (102)  0.1549 (103)  0.1146 (108) -0.1243 (116)
          -0.1945 (122) -0.1240 (125) -0.1302 (126)  0.1376 (128)
 CRD 52=  -0.2199 (  9) -0.1119 ( 13)  0.1235 ( 14) -0.2066 ( 15) -0.1221 ( 18)
          -0.2197 ( 22)  0.1856 ( 23) -0.1210 ( 30) -0.1679 ( 31) -0.1245 ( 39)
          -0.1508 ( 46)  0.1187 ( 51) -0.1005 ( 53)  0.1243 ( 54)  0.1127 ( 59)
          -0.1083 ( 68) -0.2100 ( 70)  0.1062 ( 72)  0.1815 ( 83) -0.1697 ( 90)
          -0.1322 ( 93)  0.1043 ( 95)  0.1346 (102) -0.1769 (105)  0.1557 (124)
           0.2441 (125) -0.1002 (126) -0.1729 (127) -0.2435 (128)  0.1066 (132)
 CRD 53=   0.1338 (  9)  0.2705 ( 10) -0.1161 ( 15)  0.1954 ( 22) -0.1845 ( 23)
           0.1300 ( 30)  0.1144 ( 31) -0.1330 ( 33)  0.2978 ( 43) -0.1128 ( 45)
           0.1004 ( 47) -0.1138 ( 49)  0.1806 ( 52)  0.1238 ( 67)  0.1394 ( 70)
           0.1877 ( 71)  0.1041 ( 72)  0.1294 ( 76) -0.2334 ( 96) -0.1200 (102)
           0.2246 (108)  0.1607 (109) -0.1121 (110) -0.1629 (115) -0.2305 (116)
           0.1272 (122)  0.1184 (125)
 CRD 54=  -0.5856 (  5) -0.3170 (  8) -0.1444 (  9) -0.1528 ( 10) -0.1461 ( 17)
          -0.2944 ( 23) -0.1834 ( 28) -0.2122 ( 29) -0.1073 ( 30)  0.2194 ( 41)
           0.1617 ( 55)  0.1514 ( 56)  0.1662 ( 57) -0.2002 (107)

 THE DETERMINANT OF THE G MATRIX IS 10**(   -13)


                     --------------------
                     INTERNAL COORDINATES
                     --------------------

                 - - ATOMS - -         COORDINATE      COORDINATE
 NO.   TYPE    I  J  K  L  M  N        (BOHR,RAD)       (ANG,DEG)
 ----------------------------------------------------------------
   1 STRETCH   2 19                     3.7944313       2.0079267
   2 STRETCH   3 17                     3.9294708       2.0793866
   3 STRETCH  17 19                     3.7476955       1.9831952
   4 STRETCH   1  7                     2.0989130       1.1106970
   5 STRETCH   1  2                     2.8456091       1.5058316
   6 STRETCH   1  9                     2.0970657       1.1097194
   7 STRETCH   1  8                     2.0970467       1.1097094
   8 STRETCH   2  6                     2.8408597       1.5033183
   9 STRETCH   2  3                     2.5736936       1.3619401
  10 STRETCH   3  4                     2.8735555       1.5206202
  11 STRETCH   3 10                     2.0953775       1.1088261
  12 STRETCH   4 12                     2.0992203       1.1108596
  13 STRETCH   4 11                     2.1025357       1.1126141
  14 STRETCH   4  5                     2.8750795       1.5214267
  15 STRETCH   5 14                     2.1045421       1.1136758
  16 STRETCH   5 13                     2.0983324       1.1103898
  17 STRETCH   5  6                     2.8810488       1.5245855
  18 STRETCH   6 15                     2.1004696       1.1115207
  19 STRETCH   6 16                     2.0995492       1.1110337
  20 STRETCH  17 20                     2.2377329       1.1841573
  21 STRETCH  17 18                     2.2363502       1.1834256
  22 BEND      1  2  3                  2.1659127     124.0976550
  23 BEND      1  2  6                  2.1546096     123.4500356
  24 BEND      1  2 19                  1.6154036      92.5558082
  25 BEND      2  3 10                  2.0791543     119.1267677
  26 BEND      2  3 17                  1.8561405     106.3490144
  27 BEND      2  6 16                  2.0010662     114.6526487
  28 BEND      2  1  9                  1.9212699     110.0806559
  29 BEND      2  1  8                  1.9088380     109.3683633
  30 BEND      2  6  5                  1.7809941     102.0434427
  31 BEND      2  1  7                  1.9384726     111.0662981
  32 BEND      2 19 17                  1.5467167      88.6203370
  33 BEND      2  3  4                  1.8724063     107.2809812
  34 BEND      2  6 15                  1.8714162     107.2242509
  35 BEND      3  2 19                  1.5826335      90.6782182
  36 BEND      3 17 18                  2.0127160     115.3201329
  37 BEND      3 17 20                  1.9462693     111.5130143
  38 BEND      3 17 19                  1.2874851      73.7674608
  39 BEND      3  4  5                  1.7780436     101.8743915
  40 BEND      3  4 12                  2.0111894     115.2326640
  41 BEND      3  2  6                  1.9534519     111.9245492
  42 BEND      3  4 11                  1.8766441     107.5237893
  43 BEND      4  3 17                  1.8183663     104.1847146
  44 BEND      4  3 10                  2.1952422     125.7781132
  45 BEND      4  5  6                  1.8032405     103.3180687
  46 BEND      4  5 13                  2.0278972     116.1899513
  47 BEND      4  5 14                  1.8602176     106.5826148
  48 BEND      5  4 11                  1.9133770     109.6284278
  49 BEND      5  4 12                  1.9711360     112.9377729
  50 BEND      5  6 16                  1.9298049     110.5696774
  51 BEND      5  6 15                  1.9531957     111.9098686
  52 BEND      6  2 19                  1.6400511      93.9680061
  53 BEND      6  5 13                  2.0152362     115.4645291
  54 BEND      6  5 14                  1.8692405     107.0995911
  55 BEND      7  1  8                  1.8984930     108.7756381
  56 BEND      7  1  9                  1.8983550     108.7677302
  57 BEND      8  1  9                  1.8978104     108.7365264
  58 BEND     10  3 17                  1.5507376      88.8507186
  59 BEND     11  4 12                  1.9074482     109.2887339
  60 BEND     13  5 14                  1.8770712     107.5482565
  61 BEND     15  6 16                  1.9235293     110.2101123
  62 BEND     18 17 20                  2.0193603     115.7008224
  63 BEND     18 17 19                  2.0401794     116.8936683
  64 BEND     19 17 20                  2.0368759     116.7043928
  65 TORSION   1  2  6 16               0.9660135      55.3484957
  66 TORSION   1  2  6 15              -1.1755024     -67.3513237
  67 TORSION   1  2  3 10               0.1875351      10.7449684
  68 TORSION   1  2  6  5               3.0525723     174.8995107
  69 TORSION   1  2  3  4               2.8222594     161.7035518
  70 TORSION   1  2 19 17               2.0571111     117.8637817
  71 TORSION   1  2  3 17              -1.5232452     -87.2755202
  72 TORSION   2  3  4  5               0.5114253      29.3025139
  73 TORSION   2  3  4 11              -1.4998387     -85.9344292
  74 TORSION   2  3  4 12               2.6518885     151.9420193
  75 TORSION   2  3 17 18              -2.0797559    -119.1612347
  76 TORSION   2 19 17 18               2.0053353     114.8972496
  77 TORSION   2 19 17 20              -1.7806575    -102.0241605
  78 TORSION   2  3 17 20               1.8541763     106.2364783
  79 TORSION   2 19 17  3               0.0750621       4.3007408
  80 TORSION   2  3 17 19              -0.1154429      -6.6143937
  81 TORSION   2  6  5 13               2.7676680     158.5756939
  82 TORSION   2  6  5 14              -1.4258544     -81.6954375
  83 TORSION   2  6  5  4               0.5343848      30.6179910
  84 TORSION   3  2  1  8              -2.0056043    -114.9126617
  85 TORSION   3  2  6 15               1.8258066     104.6110119
  86 TORSION   3  2  6 16              -2.3158629    -132.6891688
  87 TORSION   3  2 19 17              -0.1101619      -6.3118130
  88 TORSION   3  2  1  7               0.0899636       5.1545329
  89 TORSION   3  2  1  9               2.1935095     125.6788350
  90 TORSION   3  4  5  6              -0.6375208     -36.5272521
  91 TORSION   3  4  5 13              -2.8628841    -164.0311748
  92 TORSION   3  4  5 14               1.3293114      76.1639327
  93 TORSION   3  2  6  5              -0.2293040     -13.1381538
  94 TORSION   4  5  6 16               2.6704116     153.0033166
  95 TORSION   4  5  6 15              -1.4612313     -83.7223860
  96 TORSION   4  3  2 19              -1.8282220    -104.7494065
  97 TORSION   4  3  2  6              -0.1779780     -10.1973856
  98 TORSION   4  3 17 19               1.8597420     106.5553668
  99 TORSION   4  3 17 20              -2.4538240    -140.5937611
 100 TORSION   4  3 17 18              -0.1045710      -5.9914742
 101 TORSION   5  4  3 17              -1.4520858     -83.1983907
 102 TORSION   5  4  3 10               3.1030098     177.7893646
 103 TORSION   5  6  2 19               1.3822133      79.1949859
 104 TORSION   6  2  1  7               3.0742679     176.1425751
 105 TORSION   6  5  4 11               1.3466025      77.1546388
 106 TORSION   6  5  4 12              -2.8051219    -160.7216431
 107 TORSION   6  2 19 17              -2.0654951    -118.3441521
 108 TORSION   6  2  3 17               1.7597028     100.8235424
 109 TORSION   6  2  3 10              -2.8127023    -161.1559690
 110 TORSION   6  2  1  8               0.9787000      56.0753804
 111 TORSION   6  2  1  9              -1.1053715     -63.3331229
 112 TORSION   7  1  2 19              -1.5253748     -87.3975372
 113 TORSION   8  1  2 19               2.6622427     152.5352681
 114 TORSION   9  1  2 19               0.5781711      33.1267648
 115 TORSION  10  3  4 11               1.0917457      62.5524215
 116 TORSION  10  3  4 12              -1.0397124     -59.5711300
 117 TORSION  10  3  2 19               1.8202390     104.2920101
 118 TORSION  10  3 17 19              -2.2115380    -126.7117960
 119 TORSION  10  3 17 20              -0.2419188     -13.8609239
 120 TORSION  10  3 17 18               2.1073343     120.7413630
 121 TORSION  11  4  5 14              -2.9697506    -170.1541764
 122 TORSION  11  4  5 13              -0.8787608     -50.3492839
 123 TORSION  11  4  3 17               2.8198354     161.5646662
 124 TORSION  12  4  5 14              -0.8382896     -48.0304582
 125 TORSION  12  4  5 13               1.2527002      71.7744343
 126 TORSION  12  4  3 17               0.6883773      39.4411147
 127 TORSION  13  5  6 15               0.7720519      44.2353170
 128 TORSION  13  5  6 16              -1.3794904     -79.0389804
 129 TORSION  14  5  6 15               2.8617149     163.9641855
 130 TORSION  14  5  6 16               0.7101725      40.6898882
 131 TORSION  15  6  2 19              -2.8458614    -163.0558485
 132 TORSION  16  6  2 19              -0.7043456     -40.3560291
 133 TORSION  17  3  2 19               0.1094587       6.2715214

     ------------------------------------------
     THE POINT GROUP IS C1 , NAXIS= 0, ORDER= 1
     ------------------------------------------

     DIMENSIONS OF THE SYMMETRY SUBSPACES ARE
 A   =   48

 ..... DONE SETTING UP THE RUN .....
 STEP CPU TIME =     0.07 TOTAL CPU TIME =          0.1 (      0.0 MIN)
 TOTAL WALL CLOCK TIME=          0.1 SECONDS, CPU UTILIZATION IS    77.78%


          -----------------------------
          STATIONARY POINT LOCATION RUN
          -----------------------------


           ** GEOMETRY CONSTRAINTS ARE BEING APPLIED. **

          TRANSFORMING DISPLACEMENT FROM INTERNALS TO CARTESIANS
          THE ROOT MEAN SQUARE ERROR IN ITERATION   1 IS   0.00000210
          THE ROOT MEAN SQUARE ERROR IN ITERATION   2 IS   0.00000000
 WARNING! THE RADIUS IN CARTESIANS IS    0.00774
 OBTAINING INITIAL HESSIAN, HESS=CALC    

     ---------------------------------
     HESSIAN MATRIX CONTROL PARAMETERS
     ---------------------------------
     METHOD=ANALYTIC   NVIB  =       2   VIBSIZ= 0.01000
     RDHESS=       F   PURIFY=       F   PRTIFC=       F
     VIBANL=       F   DECOMP=       F   PROJCT=       F
     SCLFAC= 1.00000   PRTSCN=       F   NPRT  =       0
     PULCOR=       F   NPUN  =       0   REDOVB=       T
     HSSTYP=GENERAL 
 Old integral subroutine is used

     ------------------------------
     CPHF RESPONSE SOLUTION OPTIONS
     ------------------------------
     POLAR  =       F     NWORD  =       0
     CPHF   =AO      

          ********************
          1 ELECTRON INTEGRALS
          ********************
 ...... END OF ONE-ELECTRON INTEGRALS ......
 STEP CPU TIME =     0.05 TOTAL CPU TIME =          0.1 (      0.0 MIN)
 TOTAL WALL CLOCK TIME=          0.1 SECONDS, CPU UTILIZATION IS    92.31%

          -------------
          GUESS OPTIONS
          -------------
          GUESS =HUCKEL            NORB  =       0          NORDER=       0
          MIX   =       F          PRTMO =       F          PUNMO =       F
          TOLZ  = 1.0E-08          TOLE  = 1.0E-05
          SYMDEN=       F          PURIFY=       F

 INITIAL GUESS ORBITALS GENERATED BY HUCKEL   ROUTINE.
 HUCKEL GUESS REQUIRES     39252 WORDS.

 SYMMETRIES FOR INITIAL GUESS ORBITALS FOLLOW.   BOTH SET(S).
    27 ORBITALS ARE OCCUPIED (    7 CORE ORBITALS).
     8=A        9=A       10=A       11=A       12=A       13=A       14=A   
    15=A       16=A       17=A       18=A       19=A       20=A       21=A   
    22=A       23=A       24=A       25=A       26=A       27=A       28=A   
    29=A       30=A       31=A       32=A       33=A       34=A       35=A   
    36=A       37=A   
 ...... END OF INITIAL ORBITAL SELECTION ......
 STEP CPU TIME =     0.01 TOTAL CPU TIME =          0.1 (      0.0 MIN)
 TOTAL WALL CLOCK TIME=          0.2 SECONDS, CPU UTILIZATION IS    86.67%

                    ----------------------
                    AO INTEGRAL TECHNOLOGY
                    ----------------------
     S,P,L SHELL ROTATED AXIS INTEGRALS, REPROGRAMMED BY
        KAZUYA ISHIMURA (IMS) AND JOSE SIERRA (SYNSTAR).
     S,P,D,L SHELL ROTATED AXIS INTEGRALS PROGRAMMED BY
        KAZUYA ISHIMURA (INSTITUTE FOR MOLECULAR SCIENCE).
     S,P,D,F,G SHELL TO TOTAL QUARTET ANGULAR MOMENTUM SUM 5,
        ERIC PROGRAM BY GRAHAM FLETCHER (ELORET AND NASA ADVANCED
        SUPERCOMPUTING DIVISION, AMES RESEARCH CENTER).
     S,P,D,F,G,L SHELL GENERAL RYS QUADRATURE PROGRAMMED BY
        MICHEL DUPUIS (PACIFIC NORTHWEST NATIONAL LABORATORY).

          --------------------
          2 ELECTRON INTEGRALS
          --------------------

 THE -PK- OPTION IS OFF, THE INTEGRALS ARE NOT IN SUPERMATRIX FORM.
 STORING   15000 INTEGRALS/RECORD ON DISK, USING 12 BYTES/INTEGRAL.
 TWO ELECTRON INTEGRAL EVALUATION REQUIRES   89734 WORDS OF MEMORY.
 SCHWARZ INEQUALITY OVERHEAD:      1167 INTEGRALS, T=        0.00
 II,JST,KST,LST =  1  1  1  1 NREC =         1 INTLOC =    1
 II,JST,KST,LST =  2  1  1  1 NREC =         1 INTLOC =    2
 II,JST,KST,LST =  3  1  1  1 NREC =         1 INTLOC =   34
 II,JST,KST,LST =  4  1  1  1 NREC =         1 INTLOC =  135
 II,JST,KST,LST =  5  1  1  1 NREC =         1 INTLOC = 1346
 II,JST,KST,LST =  6  1  1  1 NREC =         1 INTLOC = 1936
 II,JST,KST,LST =  7  1  1  1 NREC =         1 INTLOC = 6816
 II,JST,KST,LST =  8  1  1  1 NREC =         1 INTLOC = 8423
 II,JST,KST,LST =  9  1  1  1 NREC =         2 INTLOC = 5705
 II,JST,KST,LST = 10  1  1  1 NREC =         2 INTLOC = 9143
 II,JST,KST,LST = 11  1  1  1 NREC =         4 INTLOC = 3867
 II,JST,KST,LST = 12  1  1  1 NREC =         4 INTLOC =10904
 II,JST,KST,LST = 13  1  1  1 NREC =         7 INTLOC =10905
 II,JST,KST,LST = 14  1  1  1 NREC =         8 INTLOC = 9975
 II,JST,KST,LST = 15  1  1  1 NREC =         9 INTLOC =10565
 II,JST,KST,LST = 16  1  1  1 NREC =        10 INTLOC =12625
 II,JST,KST,LST = 17  1  1  1 NREC =        12 INTLOC = 1715
 II,JST,KST,LST = 18  1  1  1 NREC =        13 INTLOC = 7478
 II,JST,KST,LST = 19  1  1  1 NREC =        14 INTLOC =14688
 II,JST,KST,LST = 20  1  1  1 NREC =        16 INTLOC = 8763
 II,JST,KST,LST = 21  1  1  1 NREC =        18 INTLOC = 5393
 II,JST,KST,LST = 22  1  1  1 NREC =        20 INTLOC = 4459
 II,JST,KST,LST = 23  1  1  1 NREC =        22 INTLOC = 5778
 II,JST,KST,LST = 24  1  1  1 NREC =        24 INTLOC = 2082
 II,JST,KST,LST = 25  1  1  1 NREC =        34 INTLOC =11896
 II,JST,KST,LST = 26  1  1  1 NREC =        37 INTLOC =13045
 II,JST,KST,LST = 27  1  1  1 NREC =        41 INTLOC = 3815
 SCHWARZ INEQUALITY TEST SKIPPED        8156 INTEGRAL BLOCKS.
 TOTAL NUMBER OF NONZERO TWO-ELECTRON INTEGRALS =              655934
         44 INTEGRAL RECORDS WERE STORED ON DISK FILE  8.
  ...... END OF TWO-ELECTRON INTEGRALS .....
 STEP CPU TIME =     0.18 TOTAL CPU TIME =          0.3 (      0.0 MIN)
 TOTAL WALL CLOCK TIME=          0.3 SECONDS, CPU UTILIZATION IS    91.18%

          --------------------------
                 RHF SCF CALCULATION
          --------------------------

     NUCLEAR ENERGY =       302.7381679597
     MAXIT =   30     NPUNCH=    2
     EXTRAP=T  DAMP=F  SHIFT=F  RSTRCT=F  DIIS=F  DEM=F  SOSCF=T
     DENSITY MATRIX CONV=  1.00E-05
     SOSCF WILL OPTIMIZE     567 ORBITAL ROTATIONS, SOGTOL=   0.250
     MEMORY REQUIRED FOR RHF ITERS=     49068 WORDS.

 ITER EX DEM     TOTAL ENERGY        E CHANGE  DENSITY CHANGE     ORB. GRAD
   1  0  0     -255.7127721600  -255.7127721600   0.298864323   0.000000000
          ---------------START SECOND ORDER SCF---------------
   2  1  0     -256.0717584234    -0.3589862634   0.132999649   0.033104337
   3  2  0     -256.0926436404    -0.0208852171   0.045728799   0.018097027
   4  3  0     -256.0967999744    -0.0041563340   0.014900217   0.004413431
   5  4  0     -256.0971461312    -0.0003461567   0.017583286   0.002379285
   6  5  0     -256.0972940043    -0.0001478731   0.015534409   0.001241707
   7  6  0     -256.0973567573    -0.0000627530   0.003143681   0.000357471
   8  7  0     -256.0973644133    -0.0000076560   0.001201755   0.000162393
   9  8  0     -256.0973655656    -0.0000011523   0.000344205   0.000068940
  10  9  0     -256.0973656825    -0.0000001169   0.000087292   0.000020651
  11 10  0     -256.0973656984    -0.0000000159   0.000032618   0.000008667
  12 11  0     -256.0973656998    -0.0000000013   0.000011315   0.000002523
  13 12  0     -256.0973656999    -0.0000000001   0.000001599   0.000000402
  14 13  0     -256.0973656999    -0.0000000000   0.000000637   0.000000113

          -----------------
          DENSITY CONVERGED
          -----------------
     TIME TO FORM FOCK OPERATORS=       0.2 SECONDS (       0.0 SEC/ITER)
     TIME TO SOLVE SCF EQUATIONS=       0.0 SECONDS (       0.0 SEC/ITER)

 FINAL RHF ENERGY IS     -256.0973656999 AFTER  14 ITERATIONS

          ------------
          EIGENVECTORS
          ------------

                      1          2          3          4          5
                  -11.1365   -11.0806   -11.0789   -11.0510   -11.0495
                     A          A          A          A          A   
    1  C  1  S   -0.001540   0.991960   0.006848   0.000211   0.000128
    2  C  1  S   -0.005578   0.037374   0.000407  -0.000087  -0.000065
    3  C  1  X   -0.004071   0.000407   0.000045  -0.000072  -0.000061
    4  C  1  Y   -0.000013   0.000123   0.000053  -0.000034   0.000019
    5  C  1  Z    0.000153  -0.000139  -0.000020   0.000026  -0.000030
    6  C  2  S    0.992340   0.002476   0.002206   0.000557   0.000647
    7  C  2  S    0.035037  -0.005927  -0.006164   0.000098   0.000196
    8  C  2  X    0.001232   0.004475  -0.002236  -0.000217  -0.000087
    9  C  2  Y   -0.000941   0.000209  -0.003803   0.000037  -0.000057
   10  C  2  Z   -0.000202  -0.000107   0.000657  -0.000099   0.000074
   11  C  3  S    0.002327  -0.000146  -0.000330  -0.000824  -0.002110
   12  C  3  S   -0.007233   0.000153   0.000235   0.000480  -0.005880
   13  C  3  X    0.002731  -0.000123   0.000037   0.000246  -0.003872
   14  C  3  Y   -0.003531  -0.000058   0.000071  -0.000157  -0.001213
   15  C  3  Z    0.000008  -0.000007  -0.000008  -0.000271   0.001420
   16  C  4  S   -0.000497  -0.000091  -0.001673  -0.077591   0.988923
   17  C  4  S    0.000086  -0.000036   0.000000  -0.008694   0.036627
   18  C  4  X    0.000197   0.000031   0.000269  -0.000236  -0.000688
   19  C  4  Y   -0.000228  -0.000019  -0.000061  -0.004098   0.000176
   20  C  4  Z    0.000070  -0.000009   0.000124  -0.001291  -0.000134
   21  C  5  S   -0.000498  -0.000175  -0.004013   0.988835   0.078539
   22  C  5  S    0.000092  -0.000029  -0.005923   0.037525  -0.002889
   23  C  5  X    0.000141   0.000035   0.003976  -0.000615  -0.000015
   24  C  5  Y    0.000211   0.000038  -0.001416  -0.000754   0.004025
   25  C  5  Z   -0.000142  -0.000014   0.000529   0.000288   0.001402
   26  C  6  S   -0.001248  -0.006836   0.991896   0.004828   0.002160
   27  C  6  S   -0.005745  -0.000149   0.037451  -0.005668  -0.000340
   28  C  6  X    0.002180  -0.000045  -0.000092  -0.004088  -0.000311
   29  C  6  Y    0.003509   0.000001  -0.000982   0.001215   0.000314
   30  C  6  Z   -0.000620   0.000014  -0.000120  -0.000533   0.000163
   31  H  7  S    0.000029  -0.006687  -0.000104  -0.000004  -0.000027
   32  H  8  S   -0.000122  -0.006779  -0.000071  -0.000004  -0.000006
   33  H  9  S   -0.000046  -0.006705  -0.000057  -0.000005   0.000002
   34  H 10  S    0.000086  -0.000058  -0.000047  -0.000131   0.000067
   35  H 11  S   -0.000054   0.000009   0.000018   0.000536  -0.006769
   36  H 12  S   -0.000122  -0.000004  -0.000130   0.000634  -0.006614
   37  H 13  S   -0.000129  -0.000011   0.000135  -0.006645  -0.000409
   38  H 14  S    0.000008   0.000011   0.000050  -0.006780  -0.000533
   39  H 15  S   -0.000174   0.000070  -0.006810  -0.000005   0.000041
   40  H 16  S    0.000018   0.000027  -0.006666   0.000094  -0.000146
   41  B 17  S    0.000008  -0.000004  -0.000005  -0.000009   0.000025
   42  B 17  S    0.000106   0.000017   0.000025   0.000040  -0.000045
   43  B 17  X    0.000090   0.000001  -0.000004   0.000024  -0.000180
   44  B 17  Y   -0.000040   0.000017   0.000025   0.000050  -0.000107
   45  B 17  Z    0.000101  -0.000006  -0.000002  -0.000027   0.000065
   46  H 18  S   -0.000058  -0.000006  -0.000001   0.000077   0.000074
   47  H 19  S   -0.001789  -0.000046  -0.000097   0.000047   0.000030
   48  H 20  S   -0.000014   0.000016  -0.000000   0.000012  -0.000071

                      6          7          8          9         10
                  -10.9994    -7.3834    -1.1295    -0.9962    -0.9365
                     A          A          A          A          A   
    1  C  1  S    0.000168  -0.000004  -0.055150  -0.154965  -0.018453
    2  C  1  S    0.000283   0.000026   0.148423   0.434625   0.053112
    3  C  1  X    0.000095   0.000019   0.047478   0.053934  -0.001564
    4  C  1  Y   -0.000028  -0.000018   0.002558   0.002228   0.025812
    5  C  1  Z    0.000004  -0.000022  -0.003789  -0.007513  -0.002191
    6  C  2  S   -0.001662   0.000030  -0.140089  -0.101096   0.006102
    7  C  2  S   -0.008129   0.000067   0.364834   0.286042  -0.015193
    8  C  2  X   -0.002759   0.000027   0.061314  -0.119953  -0.036495
    9  C  2  Y    0.004087   0.000070  -0.009385  -0.030860   0.189973
   10  C  2  Z    0.000185   0.000098  -0.018858   0.000930  -0.005810
   11  C  3  S    0.991963   0.000530  -0.106617  -0.013324   0.135261
   12  C  3  S    0.037033  -0.002991   0.261905   0.038261  -0.372666
   13  C  3  X   -0.001312  -0.000577  -0.012175  -0.088111  -0.017233
   14  C  3  Y    0.002288   0.000657   0.081796   0.013791  -0.022488
   15  C  3  Z   -0.000764  -0.002809  -0.011526   0.013062   0.021880
   16  C  4  S    0.002991   0.000049  -0.084642   0.091637   0.102395
   17  C  4  S   -0.005622   0.000081   0.216267  -0.252484  -0.294519
   18  C  4  X    0.003865   0.000046  -0.045908  -0.001877   0.054272
   19  C  4  Y    0.001262   0.000010   0.031625  -0.052889   0.052688
   20  C  4  Z   -0.001270  -0.000312   0.020548  -0.012538  -0.009528
   21  C  5  S    0.001103  -0.000011  -0.089028   0.110696  -0.054962
   22  C  5  S    0.000042   0.000195   0.226708  -0.306188   0.157382
   23  C  5  X    0.000266   0.000090  -0.052531   0.017638  -0.063292
   24  C  5  Y    0.000142   0.000064  -0.027780   0.035096   0.091616
   25  C  5  Z   -0.000199   0.000093  -0.010293   0.012057   0.007944
   26  C  6  S    0.000391  -0.000006  -0.110381   0.030882  -0.152241
   27  C  6  S    0.000238   0.000005   0.288046  -0.083083   0.442471
   28  C  6  X   -0.000079   0.000006   0.004413  -0.087625   0.006399
   29  C  6  Y    0.000001  -0.000033  -0.071030  -0.007832   0.014254
   30  C  6  Z    0.000010   0.000046   0.005819   0.002582  -0.000580
   31  H  7  S   -0.000126  -0.000071   0.026104   0.103346   0.001115
   32  H  8  S   -0.000013  -0.000006   0.027994   0.107696   0.022681
   33  H  9  S   -0.000022   0.000089   0.025580   0.100587   0.021519
   34  H 10  S   -0.006517  -0.000649   0.043467   0.019062  -0.104292
   35  H 11  S   -0.000148  -0.000140   0.039935  -0.058443  -0.076099
   36  H 12  S    0.000060  -0.000410   0.033091  -0.056579  -0.077547
   37  H 13  S   -0.000157  -0.000030   0.035615  -0.070120   0.046534
   38  H 14  S   -0.000003  -0.000563   0.041733  -0.069014   0.037673
   39  H 15  S   -0.000016   0.000012   0.054808  -0.017043   0.126709
   40  H 16  S   -0.000042   0.000068   0.047549  -0.015482   0.127583
   41  B 17  S    0.000409   0.991081  -0.008521  -0.001388   0.016482
   42  B 17  S   -0.002699   0.035282   0.017377   0.003539  -0.035911
   43  B 17  X    0.000390   0.000871  -0.001016  -0.004296  -0.000820
   44  B 17  Y   -0.000794  -0.001612   0.002818   0.001213   0.000058
   45  B 17  Z    0.002525  -0.000301  -0.008879  -0.001418   0.018048
   46  H 18  S    0.000187  -0.006354   0.003780  -0.002328  -0.010900
   47  H 19  S    0.000017  -0.002532   0.008868   0.008934  -0.001405
   48  H 20  S    0.000268  -0.006376   0.002735   0.001717  -0.010063

                     11         12         13         14         15
                   -0.8809    -0.7617    -0.6873    -0.6400    -0.6282
                     A          A          A          A          A   
    1  C  1  S   -0.139040   0.007691   0.024346   0.006405   0.031388
    2  C  1  S    0.411627  -0.024070  -0.078165  -0.021683  -0.110317
    3  C  1  X   -0.061401   0.022721   0.152883   0.058337   0.321535
    4  C  1  Y    0.005713  -0.059403   0.056024   0.099472  -0.015756
    5  C  1  Z   -0.003071   0.014950  -0.008186   0.104529  -0.016833
    6  C  2  S    0.075662  -0.021356  -0.110062  -0.015782  -0.061486
    7  C  2  S   -0.228058   0.064199   0.370727   0.061933   0.221713
    8  C  2  X   -0.181924   0.021819   0.015539  -0.041445  -0.295475
    9  C  2  Y    0.025363  -0.193457   0.091823   0.153590  -0.028539
   10  C  2  Z    0.018899   0.043533  -0.021522   0.140557  -0.002252
   11  C  3  S    0.075666  -0.041313   0.090337   0.014700   0.020609
   12  C  3  S   -0.209007   0.118889  -0.299542  -0.032180  -0.061933
   13  C  3  X    0.084991  -0.152059  -0.007179   0.097160  -0.158164
   14  C  3  Y   -0.054807   0.022488   0.246139  -0.032763  -0.138630
   15  C  3  Z   -0.009170   0.063624  -0.002590   0.142229   0.000751
   16  C  4  S   -0.089214   0.114676  -0.018669  -0.014340  -0.013825
   17  C  4  S    0.262870  -0.360034   0.056559   0.047121   0.047989
   18  C  4  X    0.073178  -0.023793   0.051691   0.098703   0.220700
   19  C  4  Y    0.057501   0.109660   0.122978  -0.099281  -0.060442
   20  C  4  Z   -0.003289   0.089445  -0.014066   0.176190  -0.101810
   21  C  5  S   -0.098832  -0.121676  -0.010631   0.014261  -0.012550
   22  C  5  S    0.293164   0.384152   0.034518  -0.047440   0.042150
   23  C  5  X    0.067037   0.063124   0.031055   0.010415   0.236712
   24  C  5  Y   -0.048802   0.093264  -0.133956  -0.072383   0.099884
   25  C  5  Z   -0.009715   0.087204  -0.005059   0.219749  -0.064746
   26  C  6  S    0.060473   0.065239   0.061094  -0.000612   0.010286
   27  C  6  S   -0.178952  -0.206872  -0.203805   0.000241  -0.030444
   28  C  6  X    0.080305   0.155889  -0.072356  -0.110557  -0.118953
   29  C  6  Y    0.034255  -0.035963  -0.256295   0.014966   0.137677
   30  C  6  Z    0.002033   0.068155   0.029350   0.257134  -0.056815
   31  H  7  S    0.126693   0.024938  -0.109444  -0.084554  -0.108623
   32  H  8  S    0.136912  -0.039313  -0.051193  -0.066226  -0.130601
   33  H  9  S    0.130359  -0.026068  -0.049606   0.079072  -0.140975
   34  H 10  S   -0.057615   0.064385  -0.273418  -0.034840   0.104359
   35  H 11  S    0.076616  -0.178106   0.024531  -0.113404   0.099713
   36  H 12  S    0.089626  -0.151515  -0.000663   0.156811   0.141710
   37  H 13  S    0.099653   0.168900  -0.022282  -0.113326   0.202521
   38  H 14  S    0.083376   0.181423   0.010749   0.152772   0.002282
   39  H 15  S   -0.054710  -0.137055  -0.145178  -0.169025   0.081401
   40  H 16  S   -0.047475  -0.081025  -0.181106   0.145832   0.052613
   41  B 17  S    0.008143  -0.016013   0.055983  -0.101982  -0.005958
   42  B 17  S   -0.018729   0.038701  -0.136177   0.259326   0.013642
   43  B 17  X    0.004741  -0.008029  -0.001782   0.032699  -0.013298
   44  B 17  Y   -0.001088   0.002215   0.030961  -0.014186  -0.013969
   45  B 17  Z    0.009910  -0.009617   0.023859  -0.000276   0.004529
   46  H 18  S   -0.000792   0.009762  -0.059308   0.154327   0.002135
   47  H 19  S   -0.008121   0.016227   0.001196   0.082600   0.007343
   48  H 20  S   -0.005947   0.016564  -0.076487   0.122865   0.021061

                     16         17         18         19         20
                   -0.5880    -0.5683    -0.5532    -0.5309    -0.4937
                     A          A          A          A          A   
    1  C  1  S    0.000580  -0.004400   0.000152   0.000778   0.007189
    2  C  1  S   -0.001931   0.015924  -0.000773  -0.002653  -0.024887
    3  C  1  X   -0.013314   0.001362  -0.006631   0.023126  -0.207909
    4  C  1  Y    0.056432  -0.240927   0.423643   0.016732   0.156456
    5  C  1  Z   -0.080115   0.407887   0.268169  -0.219573  -0.054600
    6  C  2  S   -0.002633  -0.005861   0.005952  -0.006735  -0.014388
    7  C  2  S    0.011129   0.016143  -0.018168   0.026222   0.038613
    8  C  2  X    0.019119   0.028478  -0.012489  -0.013689   0.257885
    9  C  2  Y    0.057301  -0.121589   0.129554   0.004024  -0.259208
   10  C  2  Z   -0.046137   0.140445   0.046050  -0.000174   0.038912
   11  C  3  S    0.023750   0.030630  -0.033648   0.018020  -0.023366
   12  C  3  S   -0.075444  -0.113416   0.124852  -0.065545   0.065717
   13  C  3  X    0.010207  -0.064160   0.032711  -0.036833  -0.055802
   14  C  3  Y    0.010066   0.112074  -0.119126   0.011036   0.347848
   15  C  3  Z    0.056146   0.071916  -0.036926  -0.072210   0.086520
[...]
 19   H            X -0.00968615  0.00419345  0.00028030 -0.00008323  0.00878573
                   Y  0.01640337 -0.00421261  0.00097425 -0.00059562  0.00523680
                   Z -0.02995299  0.00794009 -0.00741148  0.00154998  0.00043083
 20   H            X  0.00063829  0.00269080 -0.00303452 -0.43990272  0.40459787
                   Y  0.00502168 -0.00408375 -0.00007765 -0.52753894  0.48610999
                   Z  0.01394623 -0.00316242 -0.00917368  0.14175084 -0.12948974

 TRANS. SAYVETZ    X  0.00000003  0.00000002  0.00000016 -0.00000016 -0.00000004
                   Y -0.00000047  0.00000022  0.00000011 -0.00000002  0.00000001
                   Z  0.00000149 -0.00000030  0.00000027 -0.00000010  0.00000005
               TOTAL  0.00000156  0.00000037  0.00000033  0.00000019  0.00000006

   ROT. SAYVETZ    X -0.00747864 -0.00115144 -0.01078527  0.00450365  0.00878588
                   Y  0.00257437 -0.00029377 -0.00307404  0.00290863 -0.01002617
                   Z  0.00187892 -0.00190639 -0.00028471  0.00078849 -0.03147969
               TOTAL  0.00812944  0.00224643  0.01121841  0.00541892  0.03418606

                           51          52          53          54          55
       FREQUENCY:      3567.53     3595.95     3606.33     3629.46     3712.86  
        SYMMETRY:         A           A           A           A           A   
    REDUCED MASS:      1.03943     1.06706     1.06776     1.06814     1.10991
    IR INTENSITY:      0.00967     0.11598     0.02144     0.02229     0.02211

  1   C            X -0.04958831  0.00010026  0.00001215 -0.00009840 -0.00006288
                   Y -0.00092560  0.00004284 -0.00004033  0.00007346 -0.00010177
                   Z -0.01726926 -0.00000765  0.00037766 -0.00009504  0.00018647
  2   C            X  0.00287735 -0.00041805 -0.00077240  0.00057162  0.00015670
                   Y  0.00002011  0.00001565 -0.00190951  0.00012477  0.00023150
                   Z -0.00005200  0.00031436 -0.00016117 -0.00004226 -0.00026215
  3   C            X  0.00010178 -0.00073836 -0.00010844 -0.00019456 -0.00088180
                   Y -0.00032649  0.00189829  0.00000701 -0.00043468 -0.00389713
                   Z -0.00001117  0.00111880  0.00012288 -0.00019922 -0.00133469
  4   C            X  0.00008037  0.04044009  0.00136971 -0.00094401 -0.04864123
                   Y -0.00005288 -0.02855329 -0.00063446  0.00352084  0.03647756
                   Z -0.00008960 -0.05062205 -0.00141066  0.00655701 -0.06784103
  5   C            X  0.00007719 -0.00470291 -0.00287678 -0.05750326 -0.00142428
                   Y  0.00006044 -0.00097940 -0.00530067 -0.03782566 -0.00378515
                   Z  0.00000149  0.00158102  0.00056948 -0.01654376  0.00539900
  6   C            X  0.00016792  0.00120206 -0.03050373  0.00535278  0.00042435
                   Y  0.00004852 -0.00175641  0.05777881 -0.00434472  0.00013968
                   Z  0.00011350  0.00077903 -0.02813917  0.00461155  0.00209835
  7   H            X  0.18793374 -0.00009918  0.00102756  0.00009404  0.00060734
                   Y  0.45233393 -0.00056831  0.00118734  0.00020431  0.00165125
                   Z -0.17328475  0.00020349 -0.00022865 -0.00007272 -0.00057121
  8   H            X  0.14053422 -0.00021982 -0.00022185  0.00024869 -0.00038471
                   Y -0.05916274  0.00006981  0.00019260 -0.00012923  0.00015523
                   Z  0.63559213 -0.00083336 -0.00218637  0.00136170 -0.00162563
  9   H            X  0.22107046 -0.00037001  0.00045008  0.00021308  0.00065209
                   Y -0.38214262  0.00054315 -0.00048530 -0.00055375 -0.00091072
                   Z -0.25918541  0.00021518 -0.00047019 -0.00035442 -0.00049595
 10   H            X  0.00170971 -0.00900717 -0.00090481  0.00469998  0.01998581
                   Y  0.00405028 -0.02377484 -0.00330474  0.00989835  0.04216280
                   Z  0.00167544 -0.00844233 -0.00217562  0.00349142  0.01737542
 11   H            X  0.00016479 -0.01783312 -0.00064672  0.00276233 -0.01795525
                   Y  0.00004319 -0.00626547  0.00048837  0.00327662 -0.00048394
                   Z  0.00076676  0.77306371  0.02203223 -0.07195914  0.55357361
 12   H            X -0.00123301 -0.43414946 -0.01062096  0.01459654  0.58097701
                   Y  0.00069897  0.31565715  0.00699316 -0.01208313 -0.42239106
                   Z -0.00051090 -0.19739461 -0.00484776  0.00824023  0.25048404
 13   H            X -0.00053712  0.03182685  0.03732219  0.33295209  0.03035159
                   Y -0.00072323  0.03661067  0.04801989  0.41350419  0.03533729
                   Z  0.00072761 -0.03803669 -0.04612610 -0.42246225 -0.03676246
 14   H            X -0.00036343  0.01555150  0.02302683  0.30033769 -0.01047243
                   Y  0.00000244  0.00364450 -0.00161372  0.00280955  0.00335323
                   Z -0.00076328  0.03431704  0.03836606  0.60629439 -0.02142090
 15   H            X  0.00001593 -0.00829574  0.27444591 -0.02440277 -0.00554410
                   Y  0.00006255  0.00952753 -0.30700969  0.03125297  0.00607891
                   Z -0.00013812 -0.02246850  0.70500045 -0.07172161 -0.01422656
 16   H            X  0.00004023 -0.00336251  0.06865948 -0.00381066  0.00313264
                   Y -0.00106431  0.01342848 -0.33624253  0.01294175 -0.01143724
                   Z -0.00078173  0.01494554 -0.37218673  0.01658587 -0.01232114
 17   B            X  0.00013804 -0.00026002 -0.00019887 -0.00029248 -0.00020315
                   Y -0.00004712 -0.00003811 -0.00011159 -0.00003849  0.00001590
                   Z  0.00000379  0.00028188  0.00011634 -0.00019396 -0.00000556
 18   H            X  0.00013661  0.00110470  0.00119668  0.00385393  0.00037127
                   Y  0.00026793  0.00023069  0.00032108  0.00178526 -0.00007429
                   Z  0.00019849  0.00002435  0.00004972  0.00070462  0.00003345
 19   H            X  0.00025472 -0.00012413 -0.00070950  0.00002437  0.00011312
                   Y  0.00036553  0.00032161 -0.00182332  0.00000375 -0.00026849
                   Z  0.00174250 -0.00056167  0.00272995  0.00004538  0.00123968
 20   H            X -0.00014306  0.00056481  0.00063797  0.00049472  0.00083593
                   Y -0.00021548  0.00024646  0.00033553  0.00051837  0.00058505
                   Z -0.00000840 -0.00043753 -0.00020479 -0.00002605  0.00007322

 TRANS. SAYVETZ    X -0.00000044  0.00000025 -0.00000014 -0.00000014 -0.00000003
                   Y  0.00000038  0.00000008  0.00000046 -0.00000021  0.00000004
                   Z -0.00000018 -0.00000044 -0.00000019  0.00000029 -0.00000012
               TOTAL  0.00000061  0.00000051  0.00000051  0.00000038  0.00000013

   ROT. SAYVETZ    X  0.00059527  0.00021319  0.00047174 -0.00005740 -0.00032643
                   Y  0.00024540  0.00002293  0.00022683  0.00006773  0.00020284
                   Z -0.00000482 -0.00006124  0.00031674 -0.00004606 -0.00002927
               TOTAL  0.00064389  0.00022300  0.00061181  0.00010002  0.00038543

                           56          57          58          59          60
       FREQUENCY:      3738.13     3739.01     3740.79     3748.21     3769.51  
        SYMMETRY:         A           A           A           A           A   
    REDUCED MASS:      1.09926     1.10770     1.10732     1.11125     1.11033
    IR INTENSITY:      0.42092     0.08798     0.01627     0.01021     0.00976

  1   C            X -0.00237876 -0.00127888  0.01812814  0.00037112  0.00585176
                   Y -0.00180947 -0.00156739  0.01684223  0.00036056 -0.08995152
                   Z  0.01289922  0.00431569 -0.08582909 -0.00168354 -0.01646111
  2   C            X -0.00134020  0.00156732 -0.00102546 -0.00037205 -0.00037056
                   Y  0.00326937 -0.00019246  0.00056854  0.00034260  0.00044269
                   Z  0.00056355 -0.00052008 -0.00034860 -0.00006589 -0.00007435
  3   C            X -0.02800666  0.01548921 -0.00341951 -0.00128218 -0.00065348
                   Y -0.06456752  0.03533360 -0.00774412 -0.00309583 -0.00088190
                   Z -0.02442282  0.01335066 -0.00278438 -0.00108879 -0.00025495
  4   C            X  0.00516305 -0.00419985  0.00043420 -0.00222373  0.00009062
                   Y -0.00065056  0.00146634  0.00007731  0.00157620  0.00002512
                   Z  0.00127208 -0.00091131  0.00001243 -0.00480058  0.00006989
  5   C            X -0.00044458 -0.00272416 -0.00022770  0.00202813  0.00000837
                   Y -0.00381844 -0.00674830 -0.00159142  0.03302417  0.00008367
                   Z  0.01099388  0.01447645  0.00408819 -0.08351973 -0.00010839
  6   C            X -0.00208235 -0.00313814 -0.00069188 -0.00164472  0.00028863
                   Y -0.01424972 -0.02852475 -0.00330813 -0.00549467  0.00015449
                   Z -0.03817371 -0.07351013 -0.00913481 -0.01782394  0.00032759
  7   H            X  0.02396841  0.01174573 -0.17991291 -0.00383932  0.22780289
                   Y  0.05772887  0.02847234 -0.43382897 -0.00910570  0.54570416
                   Z -0.02098603 -0.01048263  0.15935833  0.00337133 -0.20944199
  8   H            X -0.02244423 -0.00662278  0.14728542  0.00309611  0.01058012
                   Y  0.00929413  0.00287541 -0.06100675 -0.00119937 -0.00835703
                   Z -0.10191009 -0.03215549  0.67031284  0.01326241  0.04973676
  9   H            X  0.02779226  0.00623651 -0.16849093 -0.00307788 -0.30408882
                   Y -0.04699544 -0.01224656  0.29475350  0.00552823  0.52648554
                   Z -0.03007465 -0.00809047  0.19246599  0.00368451  0.35530173
 10   H            X  0.32321862 -0.17612461  0.03853244  0.01383646  0.00403519
                   Y  0.71133073 -0.38558469  0.08461750  0.03155713  0.00949144
                   Z  0.27754647 -0.15106114  0.03327030  0.01233382  0.00371617
 11   H            X -0.00137186  0.00071525 -0.00018614 -0.00212514 -0.00012396
                   Y -0.00116804 -0.00022293 -0.00027064  0.00384895 -0.00005378
                   Z -0.00930209  0.00282973 -0.00056742  0.05058584 -0.00024636
 12   H            X -0.03379543  0.02943803 -0.00254859  0.02927305 -0.00067853
                   Y  0.02355602 -0.01950579  0.00171026 -0.02275313  0.00049009
                   Z -0.01385222  0.01244354 -0.00091809  0.01344021 -0.00025690
 13   H            X  0.04227447  0.06388547  0.01584036 -0.31878424 -0.00018618
                   Y  0.05232483  0.07972292  0.01968663 -0.39283272 -0.00036944
                   Z -0.05214768 -0.07898994 -0.01966564  0.39551725  0.00035645
 14   H            X -0.03556409 -0.03915147 -0.01329756  0.29689765  0.00024637
                   Y -0.00128123 -0.00077257 -0.00037133  0.00695857  0.00002529
                   Z -0.07397884 -0.08423210 -0.02741812  0.58764052  0.00066837
 15   H            X  0.07400456  0.14033597  0.01791435  0.04450602 -0.00040604
                   Y -0.08300346 -0.15800545 -0.02071566 -0.04733601  0.00051853
                   Z  0.18889667  0.35912440  0.04658494  0.10260945 -0.00134469
 16   H            X -0.05101106 -0.09993572 -0.01184664 -0.02317555  0.00054632
                   Y  0.24411098  0.47149486  0.05734936  0.10565422 -0.00138661
                   Z  0.26300626  0.50693971  0.06175845  0.11504924 -0.00176481
 17   B            X -0.00011559  0.00011989  0.00014445 -0.00036408  0.00013962
                   Y  0.00055224 -0.00056114 -0.00004782 -0.00015538 -0.00007609
                   Z  0.00051401 -0.00036761  0.00011948 -0.00006313 -0.00001549
 18   H            X -0.00114156  0.00000649 -0.00066641  0.00309391  0.00011122
                   Y  0.00015765  0.00011033 -0.00019306  0.00181058  0.00022958
                   Z -0.00006821  0.00028803  0.00018670  0.00028388  0.00024502
 19   H            X  0.00063122  0.00053274 -0.00126874  0.00035260 -0.00130767
                   Y  0.00131896  0.00261878  0.00080929  0.00046134  0.00110392
                   Z  0.00693014 -0.00385098  0.00250825  0.00063452 -0.00053876
 20   H            X  0.00106490 -0.00042442 -0.00007672  0.00111375 -0.00015410
                   Y  0.00088534 -0.00005299  0.00030041  0.00103781  0.00008148
                   Z -0.00069600  0.00085023  0.00001548 -0.00008758  0.00021670

 TRANS. SAYVETZ    X -0.00000029  0.00000023 -0.00000012  0.00000002 -0.00000002
                   Y -0.00000024  0.00000003 -0.00000007  0.00000001 -0.00000006
                   Z  0.00000002  0.00000012 -0.00000000 -0.00000005  0.00000010
               TOTAL  0.00000038  0.00000026  0.00000014  0.00000006  0.00000012

   ROT. SAYVETZ    X -0.00821077  0.00443677 -0.00073940 -0.00033030 -0.00022167
                   Y  0.00477734 -0.00261163  0.00079261  0.00025626 -0.00005946
                   Z -0.00020043 -0.00043212  0.00007627 -0.00019076  0.00013573
               TOTAL  0.00950157  0.00516645  0.00108662  0.00045952  0.00026664

 REFERENCE ON SAYVETZ CONDITIONS - A. SAYVETZ, J.CHEM.PHYS., 7, 383-389(1939).

 NOTE - THE MODES J,K ARE ORTHONORMALIZED ACCORDING TO
 SUM ON I   M(I) * (X(I,J)*X(I,K) + Y(I,J)*Y(I,K) + Z(I,J)*Z(I,K)) = DELTA(J,K)

  MODE FREQ(CM**-1)  SYMMETRY  RED. MASS  IR INTENS.
     1    1093.936    A        2.171952    3.690333
     2     523.768    A        1.211076    6.610815
     3       0.003    A        4.805544    0.000000
     4       0.000    A        4.805526    0.000000
     5       0.005    A        4.805545    0.000000
     6      44.974    A        3.200428    0.012195
     7      90.976    A        2.996237    0.009185
     8     139.668    A        2.696968    0.057237
     9     214.546    A        1.585660    0.006292
    10     241.870    A        1.206724    0.014148
    11     273.982    A        2.101596    0.013500
    12     320.765    A        2.687055    0.012821
    13     364.802    A        2.408803    0.066968
    14     420.373    A        3.278344    0.011931
    15     528.220    A        2.635411    0.522037
    16     639.879    A        2.388941    0.288351
    17     717.876    A        1.591294    0.588961
    18     733.393    A        1.294666    0.294783
    19     785.411    A        1.515804    0.337828
    20     910.476    A        1.247260    0.180551
    21     955.769    A        1.908761    0.317387
    22    1014.014    A        1.989345    0.020723
    23    1042.266    A        1.357161    0.200257
    24    1054.661    A        1.471221    1.487746
    25    1093.878    A        2.065319    0.029361
    26    1125.023    A        1.711439    0.076901
    27    1198.413    A        1.347264    0.308341
    28    1216.672    A        1.322348    1.504167
    29    1242.289    A        1.428401    0.837507
    30    1255.546    A        1.226668    4.703198
    31    1293.546    A        1.090833    0.454593
    32    1307.186    A        1.413766    1.398291
    33    1327.694    A        1.187328    1.780924
    34    1362.940    A        1.212479    0.118495
    35    1377.303    A        1.824996    0.049850
    36    1471.918    A        1.237998    0.029615
    37    1479.074    A        1.368275    0.038960
    38    1502.787    A        1.535123    0.096885
    39    1614.801    A        1.823160    0.268202
    40    1621.156    A        2.215005    0.119383
    41    1634.422    A        1.593332    0.048683
    42    1711.953    A        1.309744    0.083081
    43    1758.120    A        3.015674    0.401624
    44    1803.396    A        1.112963    0.014705
    45    1809.342    A        1.050210    0.042944
    46    1812.108    A        1.101353    0.020734
    47    1821.585    A        1.105426    0.003031
    48    1837.651    A        1.120758    0.015739
    49    3187.023    A        1.037208    0.034376
    50    3406.856    A        1.151178    0.174306
    51    3567.532    A        1.039435    0.009669
    52    3595.949    A        1.067056    0.115984
    53    3606.334    A        1.067756    0.021435
    54    3629.461    A        1.068139    0.022290
    55    3712.860    A        1.109906    0.022115
    56    3738.125    A        1.099265    0.420915
    57    3739.013    A        1.107704    0.087976
    58    3740.789    A        1.107321    0.016274
    59    3748.207    A        1.111253    0.010209
    60    3769.514    A        1.110326    0.009758

     -------------------------------
     THERMOCHEMISTRY AT T=  298.15 K
     -------------------------------

 USING IDEAL GAS, RIGID ROTOR, HARMONIC NORMAL MODE APPROXIMATIONS.
 P=  1.01325E+05 PASCAL.
 ALL FREQUENCIES ARE SCALED BY   1.00000
 THE MOMENTS OF INERTIA ARE (IN AMU*BOHR**2)
            509.89305           777.29719           931.22119
 THE ROTATIONAL SYMMETRY NUMBER IS  1.0
 THE ROTATIONAL CONSTANTS ARE (IN GHZ)
      3.53621     2.31969     1.93626
   2 IMAGINARY FREQUENCY VIBRATION(S) IS(ARE) EXCLUDED
     FROM THE FOLLOWING THERMOCHEMICAL ANALYSIS.
      9 -     60 VIBRATIONAL MODES ARE USED IN THERMOCHEMISTRY.
 THE HARMONIC ZERO POINT ENERGY IS (SCALED BY   1.000)
        0.203529 HARTREE/MOLECULE    44669.385738 CM**-1/MOLECULE 
      127.716311 KCAL/MOL              534.365045 KJ/MOL

               Q               LN Q
 ELEC.     1.00000E+00       0.000000
 TRANS.    3.70351E+07      17.427377
 ROT.      2.17471E+05      12.289820
 VIB.      7.23086E+00       1.978358
 TOT.      5.82377E+13      31.695555

              E         H         G         CV        CP        S
           KJ/MOL    KJ/MOL    KJ/MOL   J/MOL-K   J/MOL-K   J/MOL-K
 ELEC.      0.000     0.000     0.000     0.000     0.000     0.000
 TRANS.     3.718     6.197   -43.201    12.472    20.786   165.684
 ROT.       3.718     3.718   -30.466    12.472    12.472   114.654
 VIB.     543.647   543.647   529.461    78.452    78.452    47.581
 TOTAL    551.084   553.563   455.794   103.395   111.710   327.919
 VIB. THERMAL CORRECTION E(T)-E(0) = H(T)-H(0) =      9281.897 J/MOL

              E         H         G         CV        CP        S
         KCAL/MOL  KCAL/MOL  KCAL/MOL CAL/MOL-K CAL/MOL-K CAL/MOL-K
 ELEC.      0.000     0.000     0.000     0.000     0.000     0.000
 TRANS.     0.889     1.481   -10.325     2.981     4.968    39.600
 ROT.       0.889     0.889    -7.281     2.981     2.981    27.403
 VIB.     129.935   129.935   126.544    18.751    18.751    11.372
 TOTAL    131.712   132.305   108.937    24.712    26.699    78.375
 VIB. THERMAL CORRECTION E(T)-E(0) = H(T)-H(0) =      2218.427 CAL/MOL

     *******************************************************
     * THIS IS NOT A STATIONARY POINT ON THE MOLECULAR PES *
     *     THE VIBRATIONAL ANALYSIS IS NOT VALID !!!       *
     *******************************************************
 ......END OF NORMAL COORDINATE ANALYSIS......
 STEP CPU TIME =     0.01 TOTAL CPU TIME =        117.4 (      2.0 MIN)
 TOTAL WALL CLOCK TIME=        118.3 SECONDS, CPU UTILIZATION IS    99.24%
               580000  WORDS OF DYNAMIC MEMORY USED
 EXECUTION OF GAMESS TERMINATED NORMALLY Sun Nov 14 22:15:04 2021
 DDI: 263640 bytes (0.3 MB / 0 MWords) used by master data server.

 ----------------------------------------
 CPU timing information for all processes
 ========================================
 0: 115.288 + 2.128 = 117.417
 ----------------------------------------
 ddikick.x: exited gracefully.
----- accounting info -----
Files used on the master node chemcompute-node-0.novalocal were:
-rw-r--r--. 1 chemcomp chemcomp     1300 Nov 14 22:13 /scratch/306549/342560.F05
-rw-rw-r--. 1 chemcomp chemcomp  7920704 Nov 14 22:14 /scratch/306549/342560.F08
-rw-rw-r--. 1 chemcomp chemcomp 85196800 Nov 14 22:15 /scratch/306549/342560.F10
-rw-rw-r--. 1 chemcomp chemcomp   564960 Nov 14 22:15 /scratch/306549/342560.F18
Sun Nov 14 22:15:07 UTC 2021
0.149u 0.090s 2:01.92 0.1%	0+0k 8+216io 0pf+0w
Finishing Up...
Looking for IR data...
Looking for Raman data...
vibramans not found
Looking for thermodynamics data...
Looking for UV-Vis data...
306549
