----- GAMESS execution script 'rungms' -----
This job is running on host chemcompute-node-0.novalocal
under operating system Linux at Sun Nov 14 22:18:46 UTC 2021
SLURM has assigned the following compute nodes to this run:
chemcompute-node-0
Available scratch disk space (Kbyte units) at beginning of the job is
Filesystem     1K-blocks     Used Available Use% Mounted on
/dev/sda1       62903276 16975404  45927872  27% /
GAMESS temporary binary files will be written to /scratch/306550
GAMESS supplementary output files will be written to /data/slurm/342561
Copying input file 342561.inp to your run's scratch directory...
The generated host list is
chemcompute-node-0.novalocal

 Distributed Data Interface kickoff program.
 Initiating 1 compute processes on 1 nodes to run the following command:
 /data/gamess-2019R1-ddi/gamess.00.x 342561 

          ******************************************************
          *         GAMESS VERSION = 30 JUN 2019 (R1)          *
          *             FROM IOWA STATE UNIVERSITY             *
          * M.W.SCHMIDT, K.K.BALDRIDGE, J.A.BOATZ, S.T.ELBERT, *
          *   M.S.GORDON, J.H.JENSEN, S.KOSEKI, N.MATSUNAGA,   *
          *          K.A.NGUYEN, S.J.SU, T.L.WINDUS,           *
          *       TOGETHER WITH M.DUPUIS, J.A.MONTGOMERY       *
          *         J.COMPUT.CHEM.  14, 1347-1363(1993)        *
          **************** 64 BIT LINUX VERSION ****************

  SINCE 1993, STUDENTS AND POSTDOCS WORKING AT IOWA STATE UNIVERSITY
  AND ALSO IN THEIR VARIOUS JOBS AFTER LEAVING ISU HAVE MADE IMPORTANT
  CONTRIBUTIONS TO THE CODE:
     IVANA ADAMOVIC, CHRISTINE AIKENS, YURI ALEXEEV, POOJA ARORA,
     ANDREY ASADCHEV, ROB BELL, PRADIPTA BANDYOPADHYAY, JONATHAN BENTZ,
     COLLEEN BERTONI, BRETT BODE, KURT BRORSEN, CALEB CARLIN, GALINA CHABAN,
     WEI CHEN, CHEOL HO CHOI, PAUL DAY, ALBERT DEFUSCO, NUWAN DESILVA,
     TIM DUDLEY, DMITRI FEDOROV, ALEX FINDLATER, GRAHAM FLETCHER, 
     MARK FREITAG, KURT GLAESEMANN, ANASTASIA GUNINA,
     DAN KEMP, GRANT MERRILL, NORIYUKI MINEZAWA, JONATHAN MULLIN,
     TAKESHI NAGATA, SEAN NEDD, HEATHER NETZLOFF, BOSILJKA NJEGIC, RYAN OLSON,
     MIKE PAK, BUU PHAM,
     SPENCER PRUITT, LUKE ROSKOP, JIM SHOEMAKER, LYUDMILA SLIPCHENKO,
     TONY SMITH, SAROM SOK LEANG, JIE SONG, TETSUYA TAKETSUGU, SIMON WEBB,
     PENG XU, SOOHAENG YOO, FEDERICO ZAHARIEV

  ADDITIONAL CODE HAS BEEN PROVIDED BY COLLABORATORS IN OTHER GROUPS:
     IOWA STATE UNIVERSITY:
          JOE IVANIC, AARON WEST, LAIMUTIS BYTAUTAS, KLAUS RUEDENBERG
     UNIVERSITY OF TOKYO: KIMIHIKO HIRAO, TAKAHITO NAKAJIMA,
          TAKAO TSUNEDA, MUNEAKI KAMIYA, SUSUMU YANAGISAWA,
          KIYOSHI YAGI, MAHITO CHIBA, SEIKEN TOKURA, NAOAKI KAWAKAMI
     UNIVERSITY OF AARHUS: FRANK JENSEN
     UNIVERSITY OF IOWA: VISVALDAS KAIRYS, HUI LI
     NATIONAL INST. OF STANDARDS AND TECHNOLOGY: WALT STEVENS, DAVID GARMER
     UNIVERSITY OF PISA: BENEDETTA MENNUCCI, JACOPO TOMASI
     UNIVERSITY OF MEMPHIS: HENRY KURTZ, PRAKASHAN KORAMBATH
     UNIVERSITY OF ALBERTA: TOBY ZENG, MARIUSZ KLOBUKOWSKI
     UNIVERSITY OF NEW ENGLAND: MARK SPACKMAN
     MIE UNIVERSITY: HIROAKI UMEDA
     NAT. INST. OF ADVANCED INDUSTRIAL SCIENCE AND TECHNOLOGY: KAZUO KITAURA
     MICHIGAN STATE UNIVERSITY:
          KAROL KOWALSKI, MARTA WLOCH, JEFFREY GOUR, JESSE LUTZ,
          WEI LI, JUN SHEN, J. EMILIANO DEUSTUA, PIOTR PIECUCH
     UNIVERSITY OF MINNESOTA:
          YINAN SHU
     UNIVERSITY OF SILESIA: MONIKA MUSIAL, STANISLAW KUCHARSKI
     FACULTES UNIVERSITAIRES NOTRE-DAME DE LA PAIX:
          OLIVIER QUINET, BENOIT CHAMPAGNE
     UNIVERSITY OF CALIFORNIA - SANTA BARBARA: BERNARD KIRTMAN
     INSTITUTE FOR MOLECULAR SCIENCE:
          KAZUYA ISHIMURA, MICHIO KATOUDA, AND SHIGERU NAGASE
     UNIVERSITY OF NOTRE DAME: ANNA POMOGAEVA, DAN CHIPMAN
     KYUSHU UNIVERSITY:
          HARUYUKI NAKANO,
          FENG LONG GU, JACEK KORCHOWIEC, MARCIN MAKOWSKI, AND YURIKO AOKI,
          HIROTOSHI MORI AND EISAKU MIYOSHI
     PENNSYLVANIA STATE UNIVERSITY:
          TZVETELIN IORDANOV, CHET SWALINA, JONATHAN SKONE,
          SHARON HAMMES-SCHIFFER
     WASEDA UNIVERSITY:
          MASATO KOBAYASHI, TOMOKO AKAMA, TSUGUKI TOUMA,
          TAKESHI YOSHIKAWA, YASUHIRO IKABATA, JUNJI SEINO,
          YUYA NAKAJIMA, HIROMI NAKAI
     NANJING UNIVERSITY: SHUHUA LI
     UNIVERSITY OF NEBRASKA:
          PEIFENG SU, DEJUN SI, NANDUN THELLAMUREGE, YALI WANG, HUI LI
     UNIVERSITY OF ZURICH: ROBERTO PEVERATI, KIM BALDRIDGE
     N. COPERNICUS UNIVERSITY AND JACKSON STATE UNIVERSITY:
          MARIA BARYSZ
     UNIVERSITY OF COPENHAGEN: Jimmy Kromann, CASPER STEINMANN
     TOKYO INSTITUTE OF TECHNOLOGY: HIROYA NAKATA
     NAGOYA UNIVERSITY: YOSHIO NISHIMOTO, STEPHAN IRLE
     MOSCOW STATE UNIVERSITY: VLADIMIR MIRONOV
     A.N.NESMEYANOV INSTITUTE OF ORGANOELEMENT COMPOUNDS OF RUSSIAN ACADEMY OF SCIENCES:
          IGOR S. GERASIMOV

 EXECUTION OF GAMESS BEGUN Sun Nov 14 22:18:46 2021

            ECHO OF THE FIRST FEW INPUT CARDS -
 INPUT CARD> $BASIS GBASIS=STO NGAUSS=3 $END                                                
 INPUT CARD> $CONTRL SCFTYP=RHF RUNTYP=SADPOINT NZVAR=1 mult=1  ICHARG=0 $END               
 INPUT CARD> $STATPT hssend=.t. OPTTOL=0.0005 NSTEP=50 $END                                 
 INPUT CARD> $STATPT HESS=calc ihrep=5 $END                                                 
 INPUT CARD> $FORCE nvib=2 $END                                                             
 INPUT CARD> $ZMAT DLC=.t. auto=.t. nonvdw(1)=3,17,2,19,17,19,2,3 $END                      
 INPUT CARD>!$ZMAT IFZMAT(1)=1,3,17,1,2,19,1,17,19 fvalue(1)=2.08,2.01,1.98, $END           
 INPUT CARD>                                                                                
 INPUT CARD> $DATA                                                                          
 INPUT CARD>Title                                                                           
 INPUT CARD>C1                                                                              
 INPUT CARD>C     6.0     1.02838194    -0.22934695     0.10500244                          
 INPUT CARD>C     6.0     2.55498743    -0.18925305     0.26883233                          
 INPUT CARD>C     6.0     3.37129188    -1.24520361    -0.19971375                          
 INPUT CARD>C     6.0     4.73338223    -0.73618156    -0.66677165                          
 INPUT CARD>C     6.0     4.79232979     0.71421677    -0.12268886                          
 INPUT CARD>C     6.0     3.31267428     1.13830292     0.03213006                          
 INPUT CARD>H     1.0     0.62865686    -1.17416668     0.46005648                          
 INPUT CARD>H     1.0     0.79069114    -0.13116439    -0.95311624                          
 INPUT CARD>H     1.0     0.55169713     0.58098584     0.64661300                          
 INPUT CARD>H     1.0     2.95025849    -2.17057371    -0.56485975                          
 INPUT CARD>H     1.0     4.76662493    -0.73705965    -1.75705266                          
 INPUT CARD>H     1.0     5.56619740    -1.34123981    -0.31405735                          
 INPUT CARD>H     1.0     5.33549833     1.38088942    -0.78687072                          
 INPUT CARD>H     1.0     5.28422928     0.73014033     0.84594774                          
 INPUT CARD>H     1.0     2.93951225     1.55212939    -0.90529889                          
 INPUT CARD>H     1.0     3.15699792     1.87626874     0.81320989                          
 INPUT CARD>B     5.0     3.27657127    -1.36820912     1.87448430                          
 INPUT CARD>H     1.0     4.33756351    -1.13928294     2.26045299                          
 INPUT CARD>H     1.0     2.24838686     0.29310241     2.19585848                          
 INPUT CARD>H     1.0     2.56062269    -2.23946261     2.11320758                          
 INPUT CARD> $END                                                                           
    1000000 WORDS OF MEMORY AVAILABLE

     BASIS OPTIONS
     -------------
     GBASIS=STO          IGAUSS=       3      POLAR=NONE    
     NDFUNC=       0     NFFUNC=       0     DIFFSP=       F
     NPFUNC=       0      DIFFS=       F     BASNAM=        


     RUN TITLE
     ---------
 Title                                                                           

 THE POINT GROUP OF THE MOLECULE IS C1      
 THE ORDER OF THE PRINCIPAL AXIS IS     0

 ATOM      ATOMIC                      COORDINATES (BOHR)
           CHARGE         X                   Y                   Z
 C           6.0     1.9433600773       -0.4334028916        0.1984258396
 C           6.0     4.8282261448       -0.3576364068        0.5080194403
 C           6.0     6.3708178778       -2.3530936218       -0.3774042635
 C           6.0     8.9447954099       -1.3911814256       -1.2600157149
 C           6.0     9.0561901459        1.3496739911       -0.2318483271
 C           6.0     6.2600466758        2.1510806098        0.0607170094
 H           1.0     1.1879892057       -2.2188532891        0.8693806861
 H           1.0     1.4941895955       -0.2478647564       -1.8011285280
 H           1.0     1.0425564039        1.0979040403        1.2219213901
 H           1.0     5.5751801391       -4.1017895481       -1.0674301490
 H           1.0     9.0076150039       -1.3928407751       -3.3203480734
 H           1.0    10.5185878796       -2.5345757247       -0.5934823359
 H           1.0    10.0826298516        2.6095026231       -1.4869700486
 H           1.0     9.9857453955        1.3797651563        1.5986094285
 H           1.0     5.5548726901        2.9330992446       -1.7107668391
 H           1.0     5.9658610126        3.5456337979        1.5367438626
 B           5.0     6.1918218795       -2.5855403307        3.5422616953
 H           1.0     8.1968064882       -2.1529325791        4.2716367592
 H           1.0     4.2488350798        0.5538832412        4.1495708350
 H           1.0     4.8388752420       -4.2319706926        3.9933832814

          INTERNUCLEAR DISTANCES (ANGS.)
          ------------------------------

                1 C          2 C          3 C          4 C          5 C     

   1 C       0.0000000    1.5358946 *  2.5717783 *  3.8183169    3.8870888  
   2 C       1.5358946 *  0.0000000    1.4145388 *  2.4330823 *  2.4444319 *
   3 C       2.5717783 *  1.4145388 *  0.0000000    1.5272644 *  2.4216956 *
   4 C       3.8183169    2.4330823 *  1.5272644 *  0.0000000    1.5502117 *
   5 C       3.8870888    2.4444319 *  2.4216956 *  1.5502117 *  0.0000000  
   6 C       2.6634129 *  1.5467780 *  2.3954730 *  2.4536843 *  1.5469966 *
   7 H       1.0856002 *  2.1719510 *  2.8217707 *  4.2790587    4.6088780  
   8 H       1.0889223 *  2.1469220 *  2.9100170 *  3.9991064    4.1734148  
   9 H       1.0849929 *  2.1792563 *  3.4642967    4.5767237    4.3119069  
  10 H       2.8125942 *  2.1856151 *  1.0802363 *  2.2907198 *  3.4511966  
  11 H       4.2070752    3.0488756    2.1518525 *  1.0907880 *  2.1858657 *
  12 H       4.6908087    3.2763119    2.1999790 *  1.0881562 *  2.2046303 *
  13 H       4.6839674    3.3631975    3.3315499    2.2043042 *  1.0865643 *
  14 H       4.4251387    2.9371938 *  2.9418907 *  2.1775795 *  1.0864969 *
  15 H       2.8012115 *  2.1351478 *  2.9170800 *  2.9174015 *  2.1788779 *
  16 H       3.0767160    2.2192665 *  3.2886967    3.3911988    2.2137257 *
  17 B       3.0793552    2.1186644 *  2.0800000 *  2.9966212 *  3.2592518  
  18 H       4.0527316    2.8366683 *  2.6452449 *  2.9812426 *  3.0531359  
  19 H       2.4764984 *  2.0100001 *  3.0604031    3.9280121    3.4676569  
  20 H       3.2281906    2.7577366 *  2.6448706 *  3.8352343    4.3248088  

                6 C          7 H          8 H          9 H         10 H     

   1 C       2.6634129 *  1.0856002 *  1.0889223 *  1.0849929 *  2.8125942 *
   2 C       1.5467780 *  2.1719510 *  2.1469220 *  2.1792563 *  2.1856151 *
   3 C       2.3954730 *  2.8217707 *  2.9100170 *  3.4642967    1.0802363 *
   4 C       2.4536843 *  4.2790587    3.9991064    4.5767237    2.2907198 *
   5 C       1.5469966 *  4.6088780    4.1734148    4.3119069    3.4511966  
   6 C       0.0000000    3.5685552    2.9904275 *  2.8829128 *  3.3817757  
   7 H       3.5685552    0.0000000    1.7638498 *  1.7667163 *  2.7263739 *
   8 H       2.9904275 *  1.7638498 *  0.0000000    1.7673171 *  2.9956076 *
   9 H       2.8829128 *  1.7667163 *  1.7673171 *  0.0000000    3.8460165  
  10 H       3.3817757    2.7263739 *  2.9956076 *  3.8460165    0.0000000  
  11 H       2.9718903 *  4.7148081    4.1013988    5.0279687    2.6029740 *
  12 H       3.3684335    5.0006472    4.9677096    5.4555524    2.7556910 *
  13 H       2.1957749 *  5.4988631    4.7926211    5.0576156    4.2838707  
  14 H       2.1716181 *  5.0447648    4.9163362    4.7390761    3.9814494  
  15 H       1.0905390 *  3.8258252    2.7300543 *  3.0088555    3.7382526  
  16 H       1.0857782 *  3.9777358    3.5705887    2.9142931 *  4.2800410  
  17 B       3.1109766    3.0082735    3.9629792    3.5681883    2.5885649 *
  18 H       3.3471209    4.1229399    4.8911792    4.4605592    3.3121848  
  19 H       2.5551502 *  2.7909519 *  3.4958434    2.3155549 *  3.7661504  
  20 H       4.0380398    2.7568562 *  4.1206700    3.7605333    2.7071399 *

               11 H         12 H         13 H         14 H         15 H     

   1 C       4.2070752    4.6908087    4.6839674    4.4251387    2.8012115 *
   2 C       3.0488756    3.2763119    3.3631975    2.9371938 *  2.1351478 *
   3 C       2.1518525 *  2.1999790 *  3.3315499    2.9418907 *  2.9170800 *
   4 C       1.0907880 *  1.0881562 *  2.2043042 *  2.1775795 *  2.9174015 *
   5 C       2.1858657 *  2.2046303 *  1.0865643 *  1.0864969 *  2.1788779 *
   6 C       2.9718903 *  3.3684335    2.1957749 *  2.1716181 *  1.0905390 *
   7 H       4.7148081    5.0006472    5.4988631    5.0447648    3.8258252  
   8 H       4.1013988    4.9677096    4.7926211    4.9163362    2.7300543 *
   9 H       5.0279687    5.4555524    5.0576156    4.7390761    3.0088555  
  10 H       2.6029740 *  2.7556910 *  4.2838707    3.9814494    3.7382526  
  11 H       0.0000000    1.7568680 *  2.3980363 *  3.0325239    3.0502806  
  12 H       1.7568680 *  0.0000000    2.7725011 *  2.3907600 *  3.9522939  
  13 H       2.3980363 *  2.7725011 *  0.0000000    1.7584650 *  2.4050151 *
  14 H       3.0325239    2.3907600 *  1.7584650 *  0.0000000    3.0397745  
  15 H       3.0502806    3.9522939    2.4050151 *  3.0397745    0.0000000  
  16 H       4.0033279    4.1746059    2.7480034 *  2.4165669 *  1.7622823 *
  17 B       3.9757603    3.1674642    4.3450586    3.0808519    4.0458844  
  18 H       4.0603237    2.8597957 *  4.0783973    2.5281900 *  4.3840886  
  19 H       4.7987773    4.4697448    4.4283418    3.3510596    3.4175986  
  20 H       4.7013376    3.9663457    5.4053064    4.2240410    4.8611839  

               16 H         17 B         18 H         19 H         20 H     

   1 C       3.0767160    3.0793552    4.0527316    2.4764984 *  3.2281906  
   2 C       2.2192665 *  2.1186644 *  2.8366683 *  2.0100001 *  2.7577366 *
   3 C       3.2886967    2.0800000 *  2.6452449 *  3.0604031    2.6448706 *
   4 C       3.3911988    2.9966212 *  2.9812426 *  3.9280121    3.8352343  
   5 C       2.2137257 *  3.2592518    3.0531359    3.4676569    4.3248088  
   6 C       1.0857782 *  3.1109766    3.3471209    2.5551502 *  4.0380398  
   7 H       3.9777358    3.0082735    4.1229399    2.7909519 *  2.7568562 *
   8 H       3.5705887    3.9629792    4.8911792    3.4958434    4.1206700  
   9 H       2.9142931 *  3.5681883    4.4605592    2.3155549 *  3.7605333  
  10 H       4.2800410    2.5885649 *  3.3121848    3.7661504    2.7071399 *
  11 H       4.0033279    3.9757603    4.0603237    4.7987773    4.7013376  
  12 H       4.1746059    3.1674642    2.8597957 *  4.4697448    3.9663457  
  13 H       2.7480034 *  4.3450586    4.0783973    4.4283418    5.4053064  
  14 H       2.4165669 *  3.0808519    2.5281900 *  3.3510596    4.2240410  
  15 H       1.7622823 *  4.0458844    4.3840886    3.4175986    4.8611839  
  16 H       0.0000000    3.4157339    3.5470833    2.2899141 *  4.3571667  
  17 B       3.4157339    0.0000000    1.1519911 *  1.9800001 *  1.1526725 *
  18 H       3.5470833    1.1519911 *  0.0000000    2.5338823 *  2.0951361 *
  19 H       2.2899141 *  1.9800001 *  2.5338823 *  0.0000000    2.5530781 *
  20 H       4.3571667    1.1526725 *  2.0951361 *  2.5530781 *  0.0000000  

  * ... LESS THAN  3.000


     ATOMIC BASIS SET
     ----------------
 THE CONTRACTED PRIMITIVE FUNCTIONS HAVE BEEN UNNORMALIZED
 THE CONTRACTED BASIS FUNCTIONS ARE NOW NORMALIZED TO UNITY

  SHELL TYPE  PRIMITIVE        EXPONENT          CONTRACTION COEFFICIENT(S)

 C         

      1   S       1            71.6168373    0.154328967295
      1   S       2            13.0450963    0.535328142282
      1   S       3             3.5305122    0.444634542185

      2   L       4             2.9412494   -0.099967229187    0.155916274999
      2   L       5             0.6834831    0.399512826089    0.607683718598
      2   L       6             0.2222899    0.700115468880    0.391957393099

 C         

      3   S       7            71.6168373    0.154328967295
      3   S       8            13.0450963    0.535328142282
      3   S       9             3.5305122    0.444634542185

      4   L      10             2.9412494   -0.099967229187    0.155916274999
      4   L      11             0.6834831    0.399512826089    0.607683718598
      4   L      12             0.2222899    0.700115468880    0.391957393099

 C         

      5   S      13            71.6168373    0.154328967295
      5   S      14            13.0450963    0.535328142282
      5   S      15             3.5305122    0.444634542185

      6   L      16             2.9412494   -0.099967229187    0.155916274999
      6   L      17             0.6834831    0.399512826089    0.607683718598
      6   L      18             0.2222899    0.700115468880    0.391957393099

 C         

      7   S      19            71.6168373    0.154328967295
      7   S      20            13.0450963    0.535328142282
      7   S      21             3.5305122    0.444634542185

      8   L      22             2.9412494   -0.099967229187    0.155916274999
      8   L      23             0.6834831    0.399512826089    0.607683718598
      8   L      24             0.2222899    0.700115468880    0.391957393099

 C         

      9   S      25            71.6168373    0.154328967295
      9   S      26            13.0450963    0.535328142282
      9   S      27             3.5305122    0.444634542185

     10   L      28             2.9412494   -0.099967229187    0.155916274999
     10   L      29             0.6834831    0.399512826089    0.607683718598
     10   L      30             0.2222899    0.700115468880    0.391957393099

 C         

     11   S      31            71.6168373    0.154328967295
     11   S      32            13.0450963    0.535328142282
     11   S      33             3.5305122    0.444634542185

     12   L      34             2.9412494   -0.099967229187    0.155916274999
     12   L      35             0.6834831    0.399512826089    0.607683718598
     12   L      36             0.2222899    0.700115468880    0.391957393099

 H         

     13   S      37             3.4252509    0.154328967295
     13   S      38             0.6239137    0.535328142282
     13   S      39             0.1688554    0.444634542185

 H         

     14   S      40             3.4252509    0.154328967295
     14   S      41             0.6239137    0.535328142282
     14   S      42             0.1688554    0.444634542185

 H         

     15   S      43             3.4252509    0.154328967295
     15   S      44             0.6239137    0.535328142282
     15   S      45             0.1688554    0.444634542185

 H         

     16   S      46             3.4252509    0.154328967295
     16   S      47             0.6239137    0.535328142282
     16   S      48             0.1688554    0.444634542185

 H         

     17   S      49             3.4252509    0.154328967295
     17   S      50             0.6239137    0.535328142282
     17   S      51             0.1688554    0.444634542185

 H         

     18   S      52             3.4252509    0.154328967295
     18   S      53             0.6239137    0.535328142282
     18   S      54             0.1688554    0.444634542185

 H         

     19   S      55             3.4252509    0.154328967295
     19   S      56             0.6239137    0.535328142282
     19   S      57             0.1688554    0.444634542185

 H         

     20   S      58             3.4252509    0.154328967295
     20   S      59             0.6239137    0.535328142282
     20   S      60             0.1688554    0.444634542185

 H         

     21   S      61             3.4252509    0.154328967295
     21   S      62             0.6239137    0.535328142282
     21   S      63             0.1688554    0.444634542185

 H         

     22   S      64             3.4252509    0.154328967295
     22   S      65             0.6239137    0.535328142282
     22   S      66             0.1688554    0.444634542185

 B         

     23   S      67            48.7911132    0.154328967295
     23   S      68             8.8873622    0.535328142282
     23   S      69             2.4052670    0.444634542185

     24   L      70             2.2369561   -0.099967229187    0.155916274999
     24   L      71             0.5198205    0.399512826089    0.607683718598
     24   L      72             0.1690618    0.700115468880    0.391957393099

 H         

     25   S      73             3.4252509    0.154328967295
     25   S      74             0.6239137    0.535328142282
     25   S      75             0.1688554    0.444634542185

 H         

     26   S      76             3.4252509    0.154328967295
     26   S      77             0.6239137    0.535328142282
     26   S      78             0.1688554    0.444634542185

 H         

     27   S      79             3.4252509    0.154328967295
     27   S      80             0.6239137    0.535328142282
     27   S      81             0.1688554    0.444634542185

 TOTAL NUMBER OF BASIS SET SHELLS             =   27
 NUMBER OF CARTESIAN GAUSSIAN BASIS FUNCTIONS =   48
 NUMBER OF ELECTRONS                          =   54
 CHARGE OF MOLECULE                           =    0
 SPIN MULTIPLICITY                            =    1
 NUMBER OF OCCUPIED ORBITALS (ALPHA)          =   27
 NUMBER OF OCCUPIED ORBITALS (BETA )          =   27
 TOTAL NUMBER OF ATOMS                        =   20
 THE NUCLEAR REPULSION ENERGY IS      304.1667925593

     $CONTRL OPTIONS
     ---------------
 SCFTYP=RHF          RUNTYP=SADPOINT     EXETYP=RUN     
 MPLEVL=       0     CITYP =NONE         CCTYP =NONE         VBTYP =NONE    
 DFTTYP=NONE         TDDFT =NONE    
 MULT  =       1     ICHARG=       0     NZVAR =       1     COORD =UNIQUE  
 PP    =NONE         RELWFN=NONE         LOCAL =NONE         NUMGRD=       F
 ISPHER=      -1     NOSYM =       0     MAXIT =      30     UNITS =ANGS    
 PLTORB=       F     MOLPLT=       F     AIMPAC=       F     FRIEND=        
 NPRINT=       7     IREST =       0     GEOM  =INPUT   
 NORMF =       0     NORMP =       0     ITOL  =      20     ICUT  =       9
 INTTYP=BEST         GRDTYP=BEST         QMTTOL= 1.0E-06

     $SYSTEM OPTIONS
     ---------------
  REPLICATED MEMORY=     1000000 WORDS (ON EVERY NODE).
 DISTRIBUTED MEMDDI=           0 MILLION WORDS IN AGGREGATE,
 MEMDDI DISTRIBUTED OVER   1 PROCESSORS IS           0 WORDS/PROCESSOR.
 TOTAL MEMORY REQUESTED ON EACH PROCESSOR=     1000000 WORDS.
 TIMLIM=      525600.00 MINUTES, OR     365.0 DAYS.
 PARALL= F  BALTYP=  DLB     KDIAG=    0  COREFL= F
 MXSEQ2=     300 MXSEQ3=     150  mem10=         0

          ----------------
          PROPERTIES INPUT
          ----------------

     MOMENTS            FIELD           POTENTIAL          DENSITY
 IEMOM =       1   IEFLD =       0   IEPOT =       0   IEDEN =       0
 WHERE =COMASS     WHERE =NUCLEI     WHERE =NUCLEI     WHERE =NUCLEI  
 OUTPUT=BOTH       OUTPUT=BOTH       OUTPUT=BOTH       OUTPUT=BOTH    
 IEMINT=       0   IEFINT=       0                     IEDINT=       0
                                                       MORB  =       0
          EXTRAPOLATION IN EFFECT
          SOSCF IN EFFECT
 ORBITAL PRINTING OPTION: NPREO=     1    48     2     1

     -------------------------------
     INTEGRAL TRANSFORMATION OPTIONS
     -------------------------------
     NWORD  =            0
     CUTOFF = 1.0E-09     MPTRAN =       0
     DIRTRF =       F     AOINTS =DUP     

          ----------------------
          INTEGRAL INPUT OPTIONS
          ----------------------
 NOPK  =       1 NORDER=       0 SCHWRZ=       T


 -----------------------------------------------
  STATISTICS ON AUTOMATIC COORDINATE GENERATION 
 -----------------------------------------------
  NUMBER OF USER SPECIFIED BONDS                             4
  NUMBER OF BONDS                                           22
  NUMBER OF ANGLES                                          49
  NUMBER OF TORSIONS                                        69
  NUMBER OF EXTRA COORD.                                     0
  NUMBER OF EXTRA COORD. FOR CONSTRAINTS                     0
  NUMBER OF CONSTRAINED COORD.                               0

  TOTAL NUMBER OF PRIMITIVES                               140
 -----------------------------------------------

   --- ENCODED Z MATRIX ---
 COORD  TYPE   I   J   K   L   M   N
    1      1    1   2
    2      1    1   7
    3      1    1   9
    4      1    1   8
    5      1    2   3
    6      1    2   3
    7      1    2  19
    8      1    2   6
    9      1    3   4
   10      1    3  10
   11      1    3  17
   12      1    4  12
   13      1    4  11
   14      1    4   5
   15      1    5  14
   16      1    5  13
   17      1    5   6
   18      1    6  15
   19      1    6  16
   20      1   17  19
   21      1   17  20
   22      1   17  18
   23      2    1   2  19
   24      2    1   2   3
   25      2    1   2   6
   26      2    1   2   3
   27      2    2   6  15
   28      2    2   3   4
   29      2    2   3  10
   30      2    2   3  17
   31      2    2   1   7
   32      2    2   6  16
   33      2    2   1   8
   34      2    2  19  17
   35      2    2   1   9
   36      2    2   3  10
   37      2    2   3  17
   38      2    2   3   4
   39      2    2   6   5
   40      2    3   4   5
   41      2    3   4  11
   42      2    3   4  12
   43      2    3   2   6
   44      2    3   2  19
   45      2    3   2   6
   46      2    3  17  18
   47      2    3  17  20
   48      2    3  17  19
   49      2    3   2  19
   50      2    4   3  17
   51      2    4   3  10
   52      2    4   5  13
   53      2    4   5   6
   54      2    4   5  14
   55      2    5   6  16
   56      2    5   6  15
   57      2    5   4  11
   58      2    5   4  12
   59      2    6   5  13
   60      2    6   5  14
   61      2    6   2  19
   62      2    7   1   8
   63      2    7   1   9
   64      2    8   1   9
   65      2   10   3  17
   66      2   11   4  12
   67      2   13   5  14
   68      2   15   6  16
   69      2   18  17  20
   70      2   18  17  19
   71      2   19  17  20
   72      3    1   2   6  15
   73      3    1   2   6   5
   74      3    1   2   3  17
   75      3    1   2  19  17
   76      3    1   2   3  10
   77      3    1   2   3   4
   78      3    1   2   6  16
   79      3    2   3   4  11
   80      3    2  19  17  18
   81      3    2   3   4  12
   82      3    2  19  17  20
   83      3    2  19  17   3
   84      3    2   6   5  13
   85      3    2   6   5  14
   86      3    2   6   5   4
   87      3    2   3  17  18
   88      3    2   3  17  20
   89      3    2   3  17  19
   90      3    2   3   4   5
   91      3    3   2   1   8
   92      3    3   2  19  17
   93      3    3   2   1   9
   94      3    3   2   6  15
   95      3    3   2   6  16
   96      3    3   4   5   6
   97      3    3   4   5  13
   98      3    3   4   5  14
   99      3    3   2   1   7
  100      3    3   2   6   5
  101      3    4   3  17  20
  102      3    4   3  17  18
  103      3    4   3   2   6
  104      3    4   3   2  19
  105      3    4   5   6  16
  106      3    4   5   6  15
  107      3    4   3  17  19
  108      3    5   4   3  17
  109      3    5   4   3  10
  110      3    5   6   2  19
  111      3    6   2  19  17
  112      3    6   2   1   8
  113      3    6   2   1   9
  114      3    6   2   1   7
  115      3    6   2   3  17
  116      3    6   5   4  11
  117      3    6   5   4  12
  118      3    6   2   3  10
  119      3    7   1   2  19
  120      3    8   1   2  19
  121      3    9   1   2  19
  122      3   10   3  17  20
  123      3   10   3  17  18
  124      3   10   3   4  12
  125      3   10   3   4  11
  126      3   10   3   2  19
  127      3   10   3  17  19
  128      3   11   4   3  17
  129      3   11   4   5  14
  130      3   11   4   5  13
  131      3   12   4   3  17
  132      3   12   4   5  14
  133      3   12   4   5  13
  134      3   13   5   6  15
  135      3   13   5   6  16
  136      3   14   5   6  15
  137      3   14   5   6  16
  138      3   15   6   2  19
  139      3   16   6   2  19
  140      3   17   3   2  19

          INDEP./SYM. INTERNAL COORDINATES
          --------------------------------
 CRD  1=   0.2351 (  8) -0.1021 (  9)  0.1043 ( 17) -0.3099 ( 24)  0.3978 ( 25)
          -0.3099 ( 26) -0.2456 ( 31)  0.2346 ( 35)  0.1227 ( 74) -0.3066 ( 75)
           0.1534 ( 76)  0.1883 ( 77)  0.1104 (108)  0.1079 (112)
 CRD  2=   0.2069 (  8)  0.2064 (  9) -0.2373 ( 23) -0.1019 ( 31)  0.1140 ( 33)
           0.1421 ( 39) -0.1186 ( 43) -0.1186 ( 45)  0.1255 ( 46)  0.2713 ( 50)
           0.2128 ( 61) -0.1467 ( 65)  0.3042 ( 74) -0.1604 ( 75)  0.1563 ( 80)
           0.1004 ( 82) -0.2120 (104) -0.1013 (107)  0.1360 (110) -0.1050 (111)
           0.2774 (115) -0.1555 (126)
 CRD  3=   0.5779 (  1)  0.1386 (  5)  0.1386 (  6)  0.1541 (  8)  0.1670 (  9)
          -0.1020 ( 11)  0.1381 ( 24)  0.1381 ( 26)  0.1344 ( 31)  0.3311 ( 33)
          -0.1319 ( 43) -0.1319 ( 45) -0.1783 ( 62) -0.1272 ( 63) -0.1560 ( 64)
          -0.1083 ( 72) -0.1663 ( 73)  0.1416 ( 77)  0.1209 (104)  0.1467 (111)
 CRD  4=   0.3499 (  1)  0.2086 (  8)  0.2500 ( 11)  0.1487 ( 23)  0.2087 ( 31)
          -0.2040 ( 33)  0.1109 ( 34)  0.2697 ( 35)  0.1376 ( 40) -0.1060 ( 41)
          -0.1314 ( 48) -0.1246 ( 53)  0.1152 ( 60) -0.1592 ( 63) -0.1186 ( 69)
           0.1182 ( 72)  0.2136 ( 73) -0.1074 ( 74) -0.2045 ( 77)  0.1307 ( 78)
           0.1041 ( 81) -0.1140 (103) -0.1498 (114)  0.1010 (121)
 CRD  5=   0.3153 (  8) -0.2623 (  9) -0.2390 ( 11) -0.1191 ( 13)  0.1727 ( 20)
           0.1414 ( 30)  0.1839 ( 32)  0.1414 ( 37) -0.1034 ( 39)  0.1835 ( 40)
          -0.1747 ( 42) -0.1096 ( 44) -0.1057 ( 47) -0.1096 ( 49)  0.1021 ( 51)
           0.1143 ( 54) -0.1337 ( 57)  0.1058 ( 61)  0.1074 ( 70)  0.1010 ( 71)
          -0.1104 ( 90) -0.1060 (100)  0.1413 (103) -0.2133 (108) -0.1706 (110)
           0.1056 (120) -0.1429 (128) -0.1157 (131) -0.1202 (138)
 CRD  6=  -0.1646 (  8) -0.4853 ( 11)  0.1056 ( 17) -0.1021 ( 18) -0.1614 ( 27)
           0.1941 ( 31) -0.3044 ( 33) -0.1691 ( 34)  0.1123 ( 35)  0.1902 ( 39)
          -0.1405 ( 41) -0.1953 ( 46) -0.1745 ( 47)  0.1807 ( 48) -0.2045 ( 53)
          -0.1193 ( 63)  0.2136 ( 69) -0.1407 ( 80)  0.1315 ( 82)
 CRD  7=   0.1199 (  1)  0.1067 (  3)  0.1205 (  5)  0.1205 (  6) -0.1532 (  8)
           0.3292 (  9)  0.1775 ( 12)  0.2027 ( 14) -0.2047 ( 31) -0.1316 ( 33)
           0.4362 ( 35) -0.2498 ( 40)  0.1256 ( 41)  0.1199 ( 42)  0.1891 ( 53)
           0.1223 ( 58) -0.1450 ( 60)  0.1144 ( 62) -0.1208 ( 64) -0.1279 ( 66)
          -0.1222 ( 87) -0.1159 (108) -0.1352 (111)
 CRD  8=   0.1605 (  5)  0.1605 (  6)  0.1628 (  8) -0.2124 (  9) -0.2812 ( 14)
          -0.1017 ( 15)  0.1330 ( 17)  0.1325 ( 19)  0.1591 ( 31)  0.1329 ( 32)
          -0.2438 ( 33) -0.2608 ( 39)  0.1015 ( 46) -0.1748 ( 47)  0.1076 ( 48)
          -0.1511 ( 51) -0.1765 ( 52)  0.2717 ( 53) -0.1646 ( 54)  0.1228 ( 55)
          -0.1027 ( 63)  0.1171 ( 67) -0.1099 ( 68)  0.1079 ( 80)  0.1267 ( 82)
           0.1137 (101)  0.1172 (102)  0.1142 (110)
 CRD  9=   0.1363 (  2) -0.1108 (  3)  0.3287 (  8)  0.1237 (  9)  0.1090 ( 12)
           0.4685 ( 14)  0.1549 ( 19)  0.3908 ( 31) -0.3242 ( 35) -0.1335 ( 62)
           0.1658 ( 64) -0.1067 (136)
 CRD 10=  -0.1143 (  8) -0.1659 (  9)  0.2499 ( 14)  0.1289 ( 16)  0.5236 ( 17)
           0.1121 ( 19) -0.1152 ( 25) -0.1142 ( 27) -0.2272 ( 31)  0.2647 ( 33)
          -0.1209 ( 41) -0.1289 ( 53)  0.1472 ( 55)  0.1297 ( 56)  0.1145 ( 59)
          -0.1273 ( 64)  0.1069 ( 94) -0.1023 (105)  0.1016 (132)
 CRD 11=   0.1222 (  1) -0.2192 (  9) -0.1587 ( 11)  0.1910 ( 14) -0.3994 ( 17)
          -0.1190 ( 18) -0.1629 ( 31)  0.2384 ( 33) -0.1996 ( 41) -0.1799 ( 47)
           0.1838 ( 52) -0.1438 ( 56)  0.1796 ( 57) -0.2506 ( 59) -0.1360 ( 64)
           0.1544 ( 82)  0.1746 ( 97)  0.1006 (100) -0.1188 (103) -0.1101 (106)
          -0.1577 (116) -0.1233 (129)  0.1133 (133)
 CRD 12=   0.1088 (  4)  0.1852 (  9) -0.1838 ( 11) -0.1158 ( 13) -0.2736 ( 14)
           0.1375 ( 17)  0.1354 ( 19) -0.1022 ( 22)  0.2089 ( 33) -0.1679 ( 35)
           0.2144 ( 42) -0.2483 ( 46)  0.1124 ( 51)  0.1002 ( 53) -0.2003 ( 54)
           0.1001 ( 55) -0.2063 ( 58)  0.1507 ( 60)  0.1293 ( 63)  0.1162 ( 73)
          -0.2159 ( 80) -0.1036 ( 81)  0.1664 ( 98)  0.1080 (100) -0.1253 (102)
          -0.1357 (117) -0.1043 (124)  0.1013 (129) -0.1319 (131) -0.1051 (133)
 CRD 13=  -0.1492 (  1)  0.1213 (  3)  0.1377 (  5)  0.1377 (  6)  0.2416 (  8)
           0.2128 ( 10)  0.1100 ( 14)  0.1058 ( 21) -0.1438 ( 22)  0.1051 ( 24)
           0.1051 ( 26)  0.1189 ( 29) -0.2422 ( 31) -0.1247 ( 33)  0.1976 ( 35)
           0.1189 ( 36) -0.2188 ( 46)  0.2799 ( 47)  0.1831 ( 62)  0.1308 ( 75)
          -0.2605 ( 80) -0.3401 ( 82)  0.1353 ( 87)
 CRD 14=   0.1166 (  3) -0.1052 (  4) -0.1413 (  7)  0.1280 ( 17)  0.2116 ( 18)
           0.2123 ( 20)  0.2542 ( 27) -0.2463 ( 32) -0.1691 ( 33)  0.1132 ( 35)
          -0.1007 ( 47)  0.1855 ( 52) -0.1768 ( 54)  0.1468 ( 55) -0.1032 ( 59)
           0.1985 ( 60)  0.1173 ( 62)  0.1215 ( 71) -0.1141 ( 72) -0.1160 ( 73)
          -0.1409 ( 78)  0.1010 ( 82)  0.2244 ( 84)  0.2383 ( 85)  0.1029 ( 90)
          -0.1199 ( 96) -0.1316 (105) -0.1505 (106)  0.1097 (112)  0.1096 (113)
           0.1294 (114)
 CRD 15=   0.1085 (  8)  0.2234 (  9)  0.5521 ( 10)  0.1067 ( 19) -0.1491 ( 21)
           0.1034 ( 22) -0.1262 ( 28) -0.1262 ( 38)  0.2486 ( 46) -0.2297 ( 47)
          -0.1131 ( 50)  0.1263 ( 51) -0.1162 ( 58) -0.1313 ( 70)  0.2083 ( 80)
           0.1898 ( 82)  0.1168 ( 87)  0.1034 (123)
 CRD 16=   0.1062 (  7) -0.2598 ( 13) -0.3481 ( 15)  0.2866 ( 16) -0.1747 ( 19)
          -0.2023 ( 20) -0.1306 ( 21)  0.1106 ( 27) -0.1382 ( 32)  0.1649 ( 52)
          -0.1683 ( 54)  0.1046 ( 84)  0.1143 ( 85) -0.1050 ( 90) -0.1609 ( 91)
          -0.1671 ( 93)  0.1129 ( 96) -0.1637 ( 99) -0.1078 (101) -0.2120 (105)
          -0.1982 (106) -0.1394 (112) -0.1456 (113) -0.1422 (114)  0.1062 (116)
           0.1265 (117) -0.1176 (119) -0.1148 (120) -0.1211 (121)
 CRD 17=  -0.3832 ( 15)  0.2797 ( 16) -0.3001 ( 18)  0.1631 ( 19)  0.1054 ( 20)
           0.1466 ( 21)  0.1312 ( 41) -0.1864 ( 42)  0.1077 ( 58)  0.1452 ( 59)
          -0.1617 ( 60)  0.1355 ( 91)  0.1374 ( 93) -0.1163 ( 97) -0.1259 ( 98)
           0.1337 ( 99) -0.1496 (105) -0.1085 (106)  0.1085 (110)  0.1562 (112)
           0.1581 (113)  0.1544 (114)  0.1902 (116)  0.2180 (117)  0.1013 (120)
           0.1032 (121)
 CRD 18=  -0.1867 (  4) -0.3386 (  7) -0.2444 (  9) -0.2287 ( 13) -0.1028 ( 27)
           0.1321 ( 31)  0.1369 ( 35) -0.1166 ( 41)  0.1431 ( 47)  0.1998 ( 56)
          -0.1093 ( 61) -0.1654 ( 63) -0.1017 ( 75)  0.1136 ( 76)  0.1150 ( 77)
          -0.1074 ( 92)  0.1369 ( 94) -0.1599 (101)  0.1172 (104) -0.1361 (107)
          -0.1205 (111)  0.1346 (112)  0.1164 (113)  0.1424 (114) -0.1492 (122)
           0.1159 (126) -0.1254 (127)  0.1599 (138)  0.1001 (139)
 CRD 19=  -0.2720 (  2) -0.2763 (  3) -0.2250 (  4)  0.1459 (  7) -0.3893 ( 12)
           0.3111 ( 13) -0.1355 ( 20) -0.1348 ( 22)  0.1042 ( 31)  0.1384 ( 33)
           0.1389 ( 35)  0.1060 ( 57) -0.1289 ( 58)  0.1076 ( 59) -0.1216 ( 62)
          -0.1238 ( 63) -0.1466 ( 64) -0.1067 ( 76) -0.1617 ( 97) -0.1452 ( 98)
          -0.1160 (107)  0.1134 (109)
 CRD 20=   0.1294 (  1)  0.3865 (  2)  0.3588 (  3)  0.2971 (  4) -0.1691 (  7)
          -0.1412 ( 10) -0.2633 ( 12)  0.2043 ( 13) -0.1563 ( 33) -0.1087 ( 35)
           0.1684 ( 57) -0.1605 ( 58)  0.1019 ( 59)  0.1316 ( 62)  0.1019 ( 63)
           0.1388 ( 64) -0.1410 ( 79) -0.1334 ( 81) -0.1644 (128) -0.1568 (131)
 CRD 21=  -0.2679 (  4) -0.3380 (  7) -0.2911 ( 18)  0.2753 ( 19)  0.1692 ( 20)
           0.2161 ( 22) -0.1343 ( 48) -0.1065 ( 52)  0.1595 ( 55) -0.1818 ( 56)
           0.1788 ( 70) -0.1986 ( 72) -0.1836 ( 78) -0.1232 ( 84) -0.1098 ( 85)
          -0.1640 ( 94) -0.1490 ( 95)  0.1054 (110) -0.1154 (119) -0.1313 (120)
          -0.1357 (121)  0.1007 (127)
 CRD 22=   0.1549 (  1)  0.1516 (  2)  0.2073 (  3)  0.1547 (  4)  0.1735 (  7)
          -0.1268 (  9)  0.2542 ( 10) -0.1106 ( 12) -0.1367 ( 13) -0.1401 ( 16)
           0.1795 ( 19) -0.2472 ( 21) -0.2287 ( 22)  0.1138 ( 48)  0.1826 ( 55)
          -0.1340 ( 56) -0.1179 ( 57) -0.1164 ( 72) -0.1221 ( 78) -0.1724 ( 94)
          -0.1780 ( 95) -0.1557 (101) -0.1145 (102) -0.1118 (107) -0.1383 (122)
           0.1529 (128)  0.1341 (131) -0.1711 (138) -0.1768 (139)
 CRD 23=  -0.1281 (  7) -0.1516 ( 10) -0.5779 ( 21) -0.6128 ( 22)  0.1214 ( 46)
          -0.2408 ( 69)  0.1074 ( 80) -0.1137 ( 82)  0.1116 ( 88)  0.1399 (101)
           0.1442 (122)
 CRD 24=  -0.1816 (  2)  0.2622 (  7)  0.1007 ( 11)  0.1238 ( 16) -0.3066 ( 21)
           0.2179 ( 22) -0.1042 ( 41)  0.1267 ( 57) -0.1013 ( 58)  0.1945 ( 70)
          -0.2056 ( 71) -0.1358 ( 79) -0.1131 ( 81) -0.1644 ( 87) -0.1208 ( 88)
           0.1745 ( 91)  0.1273 ( 93)  0.1357 ( 99) -0.1197 (102)  0.1083 (107)
           0.1317 (112)  0.1732 (119)  0.2119 (120)  0.1648 (121) -0.1234 (122)
          -0.1670 (123) -0.1299 (124) -0.1526 (125) -0.1199 (128)
 CRD 25=  -0.1357 (  2)  0.1318 (  4) -0.1533 (  7) -0.1029 ( 11) -0.3934 ( 12)
           0.1523 ( 15)  0.1430 ( 16)  0.1546 ( 19) -0.2042 ( 21)  0.1425 ( 22)
           0.1821 ( 41) -0.1220 ( 42) -0.1084 ( 54) -0.1005 ( 57)  0.1174 ( 58)
          -0.1149 ( 59)  0.1516 ( 70) -0.1378 ( 71)  0.1202 ( 81) -0.1087 ( 88)
          -0.1133 (101) -0.1014 (102) -0.1082 (104)  0.1212 (116)  0.1108 (124)
          -0.1158 (126)  0.1671 (129)  0.2050 (130)  0.1009 (132)  0.1388 (133)
           0.1006 (135)  0.1349 (136)  0.1374 (137)  0.1105 (139)
 CRD 26=  -0.5527 (  2)  0.5104 (  3) -0.2779 ( 62)  0.3073 ( 64)  0.1680 ( 91)
          -0.1590 ( 93) -0.1241 ( 99)  0.1802 (112) -0.1467 (113) -0.1118 (114)
          -0.1222 (119)  0.1699 (120) -0.1571 (121)
 CRD 27=  -0.2321 (  2) -0.3451 (  3)  0.6070 (  4) -0.1162 ( 15) -0.1272 ( 16)
           0.1006 ( 18)  0.1945 ( 62) -0.3296 ( 63)  0.1347 ( 64) -0.1697 ( 93)
           0.1797 ( 99) -0.1529 (113)  0.1965 (114)  0.1799 (119) -0.1695 (121)
 CRD 28=   0.1033 (  3) -0.1330 (  4)  0.2193 ( 13) -0.4837 ( 15) -0.4215 ( 16)
           0.3669 ( 18)  0.3536 ( 19) -0.1683 ( 67)  0.1340 ( 68)  0.1099 (132)
           0.1616 (134)
 CRD 29=  -0.1826 ( 12) -0.3539 ( 13)  0.1864 ( 15)  0.2821 ( 16)  0.4331 ( 18)
           0.4498 ( 19)  0.1033 ( 42) -0.1167 ( 66)  0.1770 ( 68) -0.1617 (132)
          -0.1262 (135) -0.1021 (138)
 CRD 30=  -0.1079 (  9)  0.4595 ( 12)  0.4798 ( 13)  0.2482 ( 15)  0.3447 ( 16)
           0.1522 ( 18)  0.2023 ( 19) -0.1021 ( 57)  0.2148 ( 66)  0.1187 ( 67)
           0.1030 ( 79)  0.1041 (125)  0.1211 (128) -0.1243 (129)  0.1387 (133)
           0.1019 (136)
 CRD 31=  -0.2576 (  7) -0.1210 ( 10) -0.1252 ( 11)  0.1372 ( 12) -0.1555 ( 13)
           0.2650 ( 18) -0.2342 ( 19) -0.1590 ( 20)  0.1005 ( 22)  0.1032 ( 27)
          -0.1204 ( 52)  0.1233 ( 54)  0.1166 ( 59) -0.1165 ( 60) -0.1110 ( 71)
           0.1307 ( 79)  0.1092 ( 81) -0.1018 ( 84) -0.1117 ( 85) -0.1117 ( 97)
          -0.1091 ( 98) -0.1244 (101) -0.1326 (106)  0.1158 (125) -0.1035 (126)
           0.1186 (128) -0.1207 (129) -0.1233 (130) -0.1241 (132) -0.1267 (133)
          -0.2115 (134) -0.1710 (135) -0.2215 (136) -0.1809 (137)  0.1011 (139)
 CRD 32=   0.1140 (  5)  0.1140 (  6)  0.1407 (  7)  0.2358 ( 10)  0.2525 ( 18)
          -0.1905 ( 19)  0.4855 ( 20)  0.1063 ( 44) -0.1109 ( 46)  0.1063 ( 49)
           0.1606 ( 70)  0.1295 ( 71) -0.1537 ( 87)  0.1010 ( 88) -0.1627 (102)
           0.1269 (110) -0.1046 (114) -0.1828 (119) -0.1386 (120) -0.1600 (121)
          -0.2283 (123)  0.1304 (138)  0.1633 (139)
 CRD 33=   0.1175 ( 12) -0.1350 ( 13) -0.3009 ( 15)  0.2807 ( 16)  0.1075 ( 32)
           0.1058 ( 79)  0.1404 ( 84)  0.1225 ( 85)  0.1084 ( 86) -0.1306 ( 96)
          -0.1801 ( 97) -0.1610 ( 98)  0.1919 (105)  0.1559 (106) -0.1781 (116)
          -0.1960 (117) -0.2085 (129) -0.2276 (130) -0.2264 (132) -0.2455 (133)
           0.1878 (134)  0.2239 (135)  0.1700 (136)  0.2061 (137)
 CRD 34=  -0.1967 (  2) -0.1412 (  3) -0.1572 (  4)  0.1219 (  5)  0.1219 (  6)
           0.1331 (  7)  0.1148 (  8) -0.4228 ( 10) -0.1137 ( 13) -0.1139 ( 18)
           0.1321 ( 22) -0.1781 ( 31) -0.1659 ( 33) -0.1308 ( 35)  0.1777 ( 62)
           0.1696 ( 63)  0.1400 ( 64)  0.1325 ( 80) -0.1076 ( 92)  0.1460 (104)
          -0.1039 (107) -0.1242 (122) -0.1254 (123)  0.1009 (125)  0.1310 (126)
          -0.1767 (127) -0.1154 (136)
 CRD 35=  -0.1548 (  1)  0.2199 (  3)  0.1309 (  4)  0.1141 (  7)  0.1371 (  8)
          -0.3354 ( 10)  0.1105 ( 11) -0.1268 ( 12)  0.1096 ( 16)  0.1117 ( 20)
          -0.1161 ( 21) -0.1047 ( 25)  0.1468 ( 33)  0.1786 ( 35)  0.1265 ( 44)
           0.1265 ( 49) -0.1198 ( 57) -0.1070 ( 58) -0.1408 ( 63) -0.2039 ( 64)
           0.1379 ( 65) -0.1304 ( 68) -0.1073 ( 81) -0.1024 ( 95) -0.1317 (109)
           0.1324 (118) -0.1275 (120)  0.1062 (122) -0.1791 (124)  0.1195 (126)
           0.1462 (128) -0.1296 (136)  0.1136 (138)
 CRD 36=  -0.1009 (  1)  0.1043 (  2)  0.1391 (  3)  0.3676 (  7) -0.1042 ( 11)
           0.1220 ( 12) -0.2024 ( 13)  0.1917 ( 15) -0.1836 ( 16) -0.1800 ( 18)
           0.1824 ( 19)  0.2187 ( 20)  0.1205 ( 21) -0.1250 ( 34)  0.1099 ( 35)
           0.1371 ( 46)  0.1404 ( 47)  0.1136 ( 48)  0.1492 ( 51) -0.1461 ( 63)
          -0.1463 ( 65) -0.1856 ( 69) -0.1092 ( 76)  0.1469 ( 80) -0.1956 ( 82)
           0.1010 (109) -0.1585 (118) -0.2052 (126)  0.1213 (138)
 CRD 37=  -0.1125 (  5) -0.1125 (  6)  0.1150 (  7)  0.4517 ( 11)  0.1215 ( 12)
          -0.1520 ( 13)  0.1826 ( 15) -0.1820 ( 16) -0.1782 ( 18)  0.1776 ( 19)
          -0.2385 ( 20) -0.1275 ( 21) -0.1179 ( 22)  0.1216 ( 34) -0.2378 ( 46)
          -0.2357 ( 47)  0.2116 ( 69)  0.1429 ( 70)  0.1358 ( 71) -0.2495 ( 80)
           0.2472 ( 82)
 CRD 38=  -0.4401 (  1)  0.1887 (  2)  0.1699 (  4) -0.1139 (  7)  0.1771 ( 12)
           0.1076 ( 22)  0.1212 ( 29)  0.1734 ( 31)  0.1636 ( 33)  0.1541 ( 35)
           0.1212 ( 36)  0.1005 ( 41) -0.1059 ( 51) -0.1147 ( 55) -0.1200 ( 56)
           0.1479 ( 59)  0.1185 ( 60) -0.2142 ( 62) -0.1515 ( 63) -0.1398 ( 64)
          -0.1196 ( 66)  0.1144 ( 68)  0.1007 ( 78) -0.1023 ( 94) -0.1296 ( 97)
           0.1194 (116) -0.1084 (122) -0.1249 (123) -0.1549 (127)  0.2101 (129)
          -0.1386 (133) -0.1601 (138)
 CRD 39=  -0.1488 (  1) -0.2802 (  8) -0.2326 ( 14)  0.1126 ( 16)  0.3235 ( 17)
           0.1335 ( 19)  0.1645 ( 21) -0.1576 ( 22)  0.1938 ( 27)  0.1265 ( 32)
           0.1647 ( 52)  0.2018 ( 54) -0.1228 ( 55) -0.1202 ( 59) -0.1049 ( 60)
          -0.1280 ( 67)  0.1514 ( 84) -0.1573 ( 85)  0.1037 (105) -0.1576 (106)
           0.1071 (125)  0.2317 (135) -0.3384 (136)
 CRD 40=  -0.1322 (  1)  0.1004 (  2)  0.2329 (  9) -0.1883 ( 14) -0.1031 ( 16)
           0.1095 ( 17) -0.3084 ( 21)  0.3535 ( 22) -0.1013 ( 32)  0.1137 ( 47)
           0.1107 ( 52)  0.1060 ( 55) -0.1468 ( 59) -0.1702 ( 60) -0.1174 ( 62)
           0.1119 ( 67) -0.1280 ( 70)  0.1326 ( 71)  0.1081 ( 72) -0.1061 ( 82)
           0.1083 ( 88)  0.1246 ( 97) -0.1450 ( 98) -0.1682 (127) -0.2319 (129)
          -0.1047 (132)  0.1649 (133) -0.1190 (139)
 CRD 41=   0.2205 (  2) -0.1283 (  3) -0.1331 (  4)  0.1677 (  5)  0.1677 (  6)
          -0.1063 (  8) -0.2381 (  9)  0.1610 ( 14)  0.1147 ( 16) -0.1029 ( 27)
           0.1388 ( 41)  0.1875 ( 42) -0.1701 ( 57) -0.1628 ( 58)  0.1994 ( 64)
           0.1505 ( 79) -0.1000 ( 80) -0.1153 ( 85) -0.1828 ( 93) -0.1142 (104)
           0.1228 (112) -0.1171 (113) -0.1492 (117)  0.1894 (120)  0.1704 (125)
          -0.1245 (126)  0.1247 (128)  0.1300 (129)  0.1138 (130) -0.1039 (131)
          -0.1038 (133)  0.1106 (134) -0.1719 (137)
 CRD 42=   0.1411 (  3) -0.2481 (  4)  0.1880 (  7) -0.1811 (  8)  0.1047 ( 13)
          -0.1056 ( 15)  0.1282 ( 16) -0.2193 ( 21)  0.2317 ( 22)  0.1593 ( 32)
          -0.1073 ( 41) -0.1048 ( 46) -0.1113 ( 52) -0.1298 ( 55)  0.1195 ( 58)
           0.1088 ( 60)  0.1333 ( 62) -0.1727 ( 63)  0.1078 ( 71)  0.1329 ( 81)
          -0.1277 ( 84) -0.1446 ( 93)  0.1053 ( 95)  0.1324 ( 98)  0.1225 ( 99)
          -0.1015 (111)  0.2068 (114) -0.1012 (116)  0.1508 (119) -0.1163 (121)
           0.1321 (122)  0.1257 (124)  0.1055 (131)  0.1147 (132) -0.1771 (134)
          -0.1051 (136)
 CRD 43=   0.1245 (  1) -0.1156 (  2) -0.1939 (  5) -0.1939 (  6) -0.1305 (  9)
           0.1333 ( 10) -0.1292 ( 11) -0.3583 ( 20)  0.2069 ( 22)  0.1136 ( 41)
          -0.3241 ( 69)  0.1314 ( 70)  0.1747 ( 71) -0.1211 ( 82) -0.1890 ( 87)
           0.2097 ( 88)  0.2318 (101) -0.1669 (102)  0.1824 (122) -0.2163 (123)
           0.1236 (129)
 CRD 44=  -0.2076 (  1)  0.1563 (  3) -0.1593 (  4)  0.1591 (  8)  0.1561 (  9)
          -0.1018 ( 12)  0.1064 ( 13) -0.1615 ( 15) -0.1458 ( 20)  0.2465 ( 21)
          -0.1408 ( 22) -0.1238 ( 27)  0.1068 ( 46) -0.1103 ( 50) -0.1740 ( 63)
           0.1443 ( 67) -0.1137 ( 69)  0.1278 ( 70)  0.1322 ( 80)  0.1007 ( 81)
          -0.1339 ( 84) -0.1447 ( 87) -0.1257 ( 93)  0.1475 ( 97) -0.1215 (102)
           0.1238 (111)  0.1397 (114) -0.1530 (115)  0.1357 (119) -0.2075 (123)
           0.1332 (124)  0.1067 (131) -0.1541 (135)
 CRD 45=  -0.1793 (  5) -0.1793 (  6)  0.1093 ( 10)  0.1787 ( 12)  0.1178 ( 13)
          -0.2172 ( 14) -0.1387 ( 17)  0.1435 ( 19)  0.2210 ( 20)  0.1002 ( 30)
           0.1002 ( 37)  0.1158 ( 56) -0.2388 ( 66) -0.1307 ( 68)  0.1423 ( 69)
          -0.1048 ( 71)  0.1539 ( 72)  0.1242 ( 81)  0.1090 ( 87) -0.1397 ( 88)
           0.1505 ( 94) -0.1107 (101)  0.1379 (102)  0.1162 (116) -0.1328 (117)
          -0.2343 (122)  0.1213 (124) -0.1977 (128)  0.1524 (129)  0.1503 (130)
          -0.1260 (136)  0.1317 (138)
 CRD 46=   0.2541 (  2) -0.2804 (  3)  0.1105 (  9) -0.1519 ( 17)  0.1760 ( 19)
          -0.1169 ( 25) -0.1537 ( 31)  0.1472 ( 35)  0.1045 ( 58) -0.2050 ( 62)
           0.2054 ( 64) -0.1376 ( 68)  0.1343 ( 75)  0.2329 ( 91) -0.1005 ( 93)
          -0.1183 ( 99) -0.1047 (102) -0.1342 (106)  0.2214 (112) -0.1120 (113)
          -0.1298 (114) -0.1392 (119)  0.2119 (120) -0.1215 (121)  0.1291 (131)
          -0.1660 (134)  0.1110 (138)
 CRD 47=  -0.1051 ( 11) -0.1766 ( 12)  0.2298 ( 13) -0.2753 ( 18)  0.1005 ( 19)
          -0.1196 ( 32)  0.1353 ( 42) -0.1190 ( 54) -0.1094 ( 55) -0.1565 ( 57)
           0.1435 ( 68)  0.1456 ( 76)  0.1711 ( 78)  0.1217 ( 79)  0.1169 ( 81)
           0.1014 ( 85)  0.1921 ( 95) -0.2488 (105) -0.1305 (108) -0.1531 (109)
          -0.1799 (117)  0.1476 (118)  0.1185 (126) -0.1168 (130) -0.1714 (132)
          -0.2157 (133) -0.1603 (135) -0.1409 (137)  0.1591 (139)
 CRD 48=   0.1152 (  1)  0.1259 (  2) -0.2066 (  4) -0.1392 (  5) -0.1392 (  6)
          -0.1799 ( 11)  0.1479 ( 15) -0.1789 ( 16)  0.1775 ( 17) -0.1083 ( 19)
          -0.1329 ( 25) -0.1029 ( 31)  0.1048 ( 33) -0.1164 ( 51)  0.1189 ( 52)
          -0.1476 ( 56) -0.1410 ( 60) -0.1363 ( 63)  0.1191 ( 64)  0.1465 ( 73)
          -0.1580 ( 77)  0.1547 ( 78) -0.1175 ( 93) -0.1109 ( 94) -0.1507 ( 98)
           0.1505 ( 99) -0.1293 (109)  0.1072 (110) -0.1827 (113)  0.1264 (116)
           0.1536 (118) -0.1735 (121) -0.1645 (124) -0.1389 (132)  0.1240 (134)
           0.1256 (135)  0.1155 (139)
 CRD 49=   0.1267 (  8)  0.1919 (  9) -0.1847 ( 14)  0.1776 ( 15)  0.1812 ( 16)
          -0.2191 ( 17) -0.1097 ( 40)  0.2267 ( 53)  0.1307 ( 55)  0.1323 ( 58)
          -0.2863 ( 67)  0.1549 ( 84) -0.1658 ( 85) -0.1728 ( 97)  0.1775 ( 98)
           0.1240 (106) -0.1484 (116) -0.3149 (130)  0.2759 (132)  0.2732 (134)
          -0.2347 (137)
 CRD 50=   0.1731 (  8)  0.1393 ( 12) -0.2529 ( 14)  0.2060 ( 17) -0.1696 ( 19)
          -0.1212 ( 25) -0.1732 ( 39)  0.1163 ( 40)  0.1209 ( 51)  0.1209 ( 54)
          -0.1454 ( 59) -0.1620 ( 66)  0.2069 ( 68) -0.2013 ( 72) -0.1518 ( 79)
          -0.1301 ( 85) -0.1488 ( 94) -0.1055 (102)  0.1653 (106)  0.1457 (112)
           0.1206 (124) -0.1164 (125)  0.1599 (130)  0.1593 (131)  0.1828 (134)
          -0.2221 (137) -0.1098 (138)  0.1276 (139)
 CRD 51=   0.2846 (  5)  0.2846 (  6) -0.1196 (  8) -0.1317 ( 10)  0.1488 ( 13)
          -0.1416 ( 14)  0.1317 ( 15) -0.1056 ( 16)  0.1006 ( 18) -0.1244 ( 28)
          -0.1244 ( 38)  0.1540 ( 40)  0.1743 ( 51)  0.1162 ( 52) -0.1487 ( 66)
           0.1106 ( 73) -0.1082 ( 79)  0.1244 ( 81) -0.1224 ( 86)  0.1240 ( 96)
          -0.1588 (102) -0.1215 (106) -0.1133 (107) -0.1208 (109)  0.1355 (116)
           0.1299 (122) -0.1409 (125)  0.2378 (131) -0.1703 (132) -0.1678 (133)
           0.1646 (135)  0.1315 (137)
 CRD 52=  -0.2089 (  1)  0.2254 (  8) -0.2188 (  9)  0.1555 ( 10)  0.1895 ( 24)
           0.1895 ( 26)  0.1701 ( 28) -0.2343 ( 29) -0.2343 ( 36)  0.1701 ( 38)
          -0.1840 ( 43) -0.1840 ( 45) -0.1237 ( 76) -0.1241 ( 77)  0.1224 ( 83)
          -0.1387 ( 87) -0.1349 ( 88) -0.1636 ( 89)  0.1511 ( 91) -0.2184 ( 92)
           0.1582 (104)  0.1008 (122)  0.1586 (126)  0.1967 (140)
 CRD 53=   0.1829 (  5)  0.1829 (  6) -0.1317 (  7)  0.1153 ( 12) -0.1045 ( 13)
          -0.1137 ( 15) -0.1305 ( 18)  0.1084 ( 19) -0.1159 ( 32) -0.1185 ( 42)
           0.1115 ( 56)  0.1084 ( 57)  0.1800 ( 72) -0.1334 ( 77)  0.1863 ( 78)
           0.2028 ( 86)  0.1394 ( 90) -0.2069 ( 96) -0.1196 (100) -0.1044 (102)
           0.1633 (108) -0.1119 (110) -0.1577 (112) -0.1800 (113)  0.1584 (118)
           0.1142 (122) -0.2048 (124) -0.2370 (125)  0.1258 (130)  0.1403 (133)
          -0.1127 (134) -0.1594 (135) -0.1078 (137)
 CRD 54=  -0.1554 (  7)  0.1634 ( 11) -0.1043 ( 30) -0.1043 ( 37)  0.1430 ( 44)
           0.1430 ( 49) -0.1011 ( 65)  0.1429 ( 72) -0.1565 ( 74) -0.3501 ( 76)
           0.1606 ( 78) -0.1302 ( 79) -0.1217 ( 81) -0.1930 ( 90)  0.1835 ( 91)
           0.1182 ( 93) -0.1225 ( 94) -0.1048 ( 95)  0.2378 ( 99) -0.1835 (100)
           0.2364 (103)  0.1318 (104)  0.1276 (109) -0.1145 (112) -0.1797 (113)
           0.1108 (115)  0.1988 (124)  0.1904 (125) -0.1874 (126)

 THE DETERMINANT OF THE G MATRIX IS 10**(   -12)


                     --------------------
                     INTERNAL COORDINATES
                     --------------------

                 - - ATOMS - -         COORDINATE      COORDINATE
 NO.   TYPE    I  J  K  L  M  N        (BOHR,RAD)       (ANG,DEG)
 ----------------------------------------------------------------
   1 STRETCH   1  2                     2.9024198       1.5358946
   2 STRETCH   1  7                     2.0514869       1.0856002
   3 STRETCH   1  9                     2.0503393       1.0849929
   4 STRETCH   1  8                     2.0577649       1.0889223
   5 STRETCH   2  3                     2.6730907       1.4145388
   6 STRETCH   2  3                     2.6730907       1.4145388
   7 STRETCH   2 19                     3.7983495       2.0100001
   8 STRETCH   2  6                     2.9229866       1.5467780
   9 STRETCH   3  4                     2.8861113       1.5272644
  10 STRETCH   3 10                     2.0413507       1.0802363
  11 STRETCH   3 17                     3.9306300       2.0800000
  12 STRETCH   4 12                     2.0563171       1.0881562
  13 STRETCH   4 11                     2.0612905       1.0907880
  14 STRETCH   4  5                     2.9294753       1.5502117
  15 STRETCH   5 14                     2.0531814       1.0864969
  16 STRETCH   5 13                     2.0533088       1.0865643
  17 STRETCH   5  6                     2.9233996       1.5469966
  18 STRETCH   6 15                     2.0608199       1.0905390
  19 STRETCH   6 16                     2.0518234       1.0857782
  20 STRETCH  17 19                     3.7416577       1.9800001
  21 STRETCH  17 20                     2.1782351       1.1526725
  22 STRETCH  17 18                     2.1769476       1.1519911
  23 BEND      1  2 19                  1.5276966      87.5305664
  24 BEND      1  2  3                  2.1162107     121.2499435
  25 BEND      1  2  6                  2.0862935     119.5358132
  26 BEND      1  2  3                  2.1162107     121.2499435
  27 BEND      2  6 15                  1.8646212     106.8349268
  28 BEND      2  3  4                  1.9467568     111.5409509
  29 BEND      2  3 10                  2.1252982     121.7706147
  30 BEND      2  3 17                  1.2530298      71.7933173
  31 BEND      2  1  7                  1.9324405     110.7206863
  32 BEND      2  6 16                  1.9856097     113.7670540
  33 BEND      2  1  8                  1.8946865     108.5575401
  34 BEND      2 19 17                  1.1194551      64.1400503
  35 BEND      2  1  9                  1.9432947     111.3425844
  36 BEND      2  3 10                  2.1252982     121.7706147
  37 BEND      2  3 17                  1.2530298      71.7933173
  38 BEND      2  3  4                  1.9467568     111.5409509
  39 BEND      2  6  5                  1.8219871     104.3921701
  40 BEND      3  4  5                  1.8115259     103.7927903
  41 BEND      3  4 11                  1.9098373     109.4256171
  42 BEND      3  4 12                  1.9802674     113.4609651
  43 BEND      3  2  6                  1.8831791     107.8982126
  44 BEND      3  2 19                  2.1953460     125.7840576
  45 BEND      3  2  6                  1.8831791     107.8982126
  46 BEND      3 17 18                  1.8550247     106.2850860
  47 BEND      3 17 20                  1.8540808     106.2310068
  48 BEND      3 17 19                  1.7071042      97.8098637
  49 BEND      3  2 19                  2.1953460     125.7840576
  50 BEND      4  3 17                  1.9447341     111.4250577
  51 BEND      4  3 10                  2.1290949     121.9881541
  52 BEND      4  5 13                  1.9589986     112.2423533
  53 BEND      4  5  6                  1.8288908     104.7877231
  54 BEND      4  5 14                  1.9217872     110.1102950
  55 BEND      5  6 16                  1.9773534     113.2940027
  56 BEND      5  6 15                  1.9233394     110.1992323
  57 BEND      5  4 11                  1.9287992     110.5120520
  58 BEND      5  4 12                  1.9577524     112.1709502
  59 BEND      6  5 13                  1.9510008     111.7841128
  60 BEND      6  5 14                  1.9174926     109.8642307
  61 BEND      6  2 19                  1.5862632      90.8861838
  62 BEND      7  1  8                  1.8922076     108.4155081
  63 BEND      7  1  9                  1.9017786     108.9638898
  64 BEND      8  1  9                  1.8984496     108.7731524
  65 BEND     10  3 17                  1.8428114     105.5853144
  66 BEND     11  4 12                  1.8757160     107.4706108
  67 BEND     13  5 14                  1.8856157     108.0378227
  68 BEND     15  6 16                  1.8874631     108.1436694
  69 BEND     18 17 20                  2.2821669     130.7585341
  70 BEND     18 17 19                  1.8308651     104.9008439
  71 BEND     19 17 20                  1.8525532     106.1434810
  72 TORSION   1  2  6 15              -0.8256651     -47.3071256
  73 TORSION   1  2  6  5              -2.8633165    -164.0559536
  74 TORSION   1  2  3 17              -1.8472354    -105.8387923
  75 TORSION   1  2 19 17               2.1055043     120.6365105
  76 TORSION   1  2  3 10              -0.1470990      -8.4281502
  77 TORSION   1  2  3  4               2.5776322     147.6874475
  78 TORSION   1  2  6 16               1.2557762      71.9506781
  79 TORSION   2  3  4 11              -1.8327366    -105.0080710
  80 TORSION   2 19 17 18               1.9732147     113.0568769
  81 TORSION   2  3  4 12               2.3559601     134.9865719
  82 TORSION   2 19 17 20              -1.8439528    -105.6507116
  83 TORSION   2 19 17  3               0.0667624       3.8252017
  84 TORSION   2  6  5 13               2.6044334     149.2230427
  85 TORSION   2  6  5 14              -1.5855778     -90.8469159
  86 TORSION   2  6  5  4               0.4784534      27.4133615
  87 TORSION   2  3 17 18              -1.9764070    -113.2397771
  88 TORSION   2  3 17 20               1.8195384     104.2518701
  89 TORSION   2  3 17 19              -0.0899203      -5.1520549
  90 TORSION   2  3  4  5               0.2264012      12.9718336
  91 TORSION   3  2  1  8              -1.1999759     -68.7535521
  92 TORSION   3  2 19 17              -0.1200916      -6.8807420
  93 TORSION   3  2  1  9               2.9938366     171.5342012
  94 TORSION   3  2  6 15               1.6885474      96.7466369
  95 TORSION   3  2  6 16              -2.5131966    -143.9955594
  96 TORSION   3  4  5  6              -0.4310184     -24.6955347
  97 TORSION   3  4  5 13              -2.5517546    -146.2047713
  98 TORSION   3  4  5 14               1.6300968      93.3976664
  99 TORSION   3  2  1  7               0.8752081      50.1457329
 100 TORSION   3  2  6  5              -0.3491041     -20.0021911
 101 TORSION   4  3 17 20              -2.6026504    -149.1208837
 102 TORSION   4  3 17 18              -0.1154104      -6.6125309
 103 TORSION   4  3  2  6               0.0763178       4.3726860
 104 TORSION   4  3  2 19              -1.7500745    -100.2718805
 105 TORSION   4  5  6 16               2.6478470     151.7104576
 106 TORSION   4  5  6 15              -1.5180923     -86.9802833
 107 TORSION   4  3 17 19               1.7710762     101.4751913
 108 TORSION   5  4  3 17              -1.1369628     -65.1431686
 109 TORSION   5  4  3 10               2.9500853     169.0274347
 110 TORSION   5  6  2 19               1.8898474     108.2802780
 111 TORSION   6  2 19 17              -2.0915597    -119.8375432
 112 TORSION   6  2  1  8               1.2295243      70.4465548
 113 TORSION   6  2  1  9              -0.8598485     -49.2656920
 114 TORSION   6  2  1  7              -2.9784770    -170.6541603
 115 TORSION   6  2  3 17               1.9346355     110.8464462
 116 TORSION   6  5  4 11               1.6149414      92.5293268
 117 TORSION   6  5  4 12              -2.5754789    -147.5640720
 118 TORSION   6  2  3 10              -2.6484134    -151.7429117
 119 TORSION   7  1  2 19              -1.4143233     -81.0347544
 120 TORSION   8  1  2 19               2.7936780     160.0659606
 121 TORSION   9  1  2 19               0.7043052      40.3537139
 122 TORSION  10  3 17 20              -0.2561162     -14.6743792
 123 TORSION  10  3 17 18               2.2311237     127.8339736
 124 TORSION  10  3  4 12              -1.2035411     -68.9578269
 125 TORSION  10  3  4 11               0.8909475      51.0475301
 126 TORSION  10  3  2 19               1.8083797     103.6125219
 127 TORSION  10  3 17 19              -2.1655749    -124.0783041
 128 TORSION  11  4  3 17               3.0870847     176.8769268
 129 TORSION  11  4  5 14              -2.6071287    -149.3774721
 130 TORSION  11  4  5 13              -0.5057948     -28.9799098
 131 TORSION  12  4  3 17               0.9925961      56.8715697
 132 TORSION  12  4  5 14              -0.5143637     -29.4708709
 133 TORSION  12  4  5 13               1.5869701      90.9266914
 134 TORSION  13  5  6 15               0.6078877      34.8293979
 135 TORSION  13  5  6 16              -1.5093583     -86.4798612
 136 TORSION  14  5  6 15               2.7010618     154.7594393
 137 TORSION  14  5  6 16               0.5838158      33.4501801
 138 TORSION  15  6  2 19              -2.3556865    -134.9708940
 139 TORSION  16  6  2 19              -0.2742452     -15.7130903
 140 TORSION  17  3  2 19               0.1082432       6.2018797

     ------------------------------------------
     THE POINT GROUP IS C1 , NAXIS= 0, ORDER= 1
     ------------------------------------------

     DIMENSIONS OF THE SYMMETRY SUBSPACES ARE
 A   =   48

 ..... DONE SETTING UP THE RUN .....
 STEP CPU TIME =     0.09 TOTAL CPU TIME =          0.1 (      0.0 MIN)
 TOTAL WALL CLOCK TIME=          0.1 SECONDS, CPU UTILIZATION IS    81.82%


          -----------------------------
          STATIONARY POINT LOCATION RUN
          -----------------------------

 OBTAINING INITIAL HESSIAN, HESS=CALC    

     ---------------------------------
     HESSIAN MATRIX CONTROL PARAMETERS
     ---------------------------------
     METHOD=ANALYTIC   NVIB  =       2   VIBSIZ= 0.01000
     RDHESS=       F   PURIFY=       F   PRTIFC=       F
     VIBANL=       F   DECOMP=       F   PROJCT=       F
     SCLFAC= 1.00000   PRTSCN=       F   NPRT  =       0
     PULCOR=       F   NPUN  =       0   REDOVB=       T
     HSSTYP=GENERAL 
 Old integral subroutine is used

     ------------------------------
     CPHF RESPONSE SOLUTION OPTIONS
     ------------------------------
     POLAR  =       F     NWORD  =       0
     CPHF   =AO      

          ********************
          1 ELECTRON INTEGRALS
          ********************
 ...... END OF ONE-ELECTRON INTEGRALS ......
 STEP CPU TIME =     0.03 TOTAL CPU TIME =          0.1 (      0.0 MIN)
 TOTAL WALL CLOCK TIME=          0.2 SECONDS, CPU UTILIZATION IS    75.00%

          -------------
          GUESS OPTIONS
          -------------
          GUESS =HUCKEL            NORB  =       0          NORDER=       0
          MIX   =       F          PRTMO =       F          PUNMO =       F
          TOLZ  = 1.0E-08          TOLE  = 1.0E-05
          SYMDEN=       F          PURIFY=       F

 INITIAL GUESS ORBITALS GENERATED BY HUCKEL   ROUTINE.
 HUCKEL GUESS REQUIRES     39252 WORDS.

 SYMMETRIES FOR INITIAL GUESS ORBITALS FOLLOW.   BOTH SET(S).
    27 ORBITALS ARE OCCUPIED (    7 CORE ORBITALS).
     8=A        9=A       10=A       11=A       12=A       13=A       14=A   
    15=A       16=A       17=A       18=A       19=A       20=A       21=A   
    22=A       23=A       24=A       25=A       26=A       27=A       28=A   
    29=A       30=A       31=A       32=A       33=A       34=A       35=A   
    36=A       37=A   
 ...... END OF INITIAL ORBITAL SELECTION ......
 STEP CPU TIME =     0.02 TOTAL CPU TIME =          0.1 (      0.0 MIN)
 TOTAL WALL CLOCK TIME=          0.2 SECONDS, CPU UTILIZATION IS    73.68%

                    ----------------------
                    AO INTEGRAL TECHNOLOGY
                    ----------------------
     S,P,L SHELL ROTATED AXIS INTEGRALS, REPROGRAMMED BY
        KAZUYA ISHIMURA (IMS) AND JOSE SIERRA (SYNSTAR).
     S,P,D,L SHELL ROTATED AXIS INTEGRALS PROGRAMMED BY
        KAZUYA ISHIMURA (INSTITUTE FOR MOLECULAR SCIENCE).
     S,P,D,F,G SHELL TO TOTAL QUARTET ANGULAR MOMENTUM SUM 5,
        ERIC PROGRAM BY GRAHAM FLETCHER (ELORET AND NASA ADVANCED
        SUPERCOMPUTING DIVISION, AMES RESEARCH CENTER).
     S,P,D,F,G,L SHELL GENERAL RYS QUADRATURE PROGRAMMED BY
        MICHEL DUPUIS (PACIFIC NORTHWEST NATIONAL LABORATORY).

          --------------------
          2 ELECTRON INTEGRALS
          --------------------

 THE -PK- OPTION IS OFF, THE INTEGRALS ARE NOT IN SUPERMATRIX FORM.
 STORING   15000 INTEGRALS/RECORD ON DISK, USING 12 BYTES/INTEGRAL.
 TWO ELECTRON INTEGRAL EVALUATION REQUIRES   89734 WORDS OF MEMORY.
 SCHWARZ INEQUALITY OVERHEAD:      1164 INTEGRALS, T=        0.00
 II,JST,KST,LST =  1  1  1  1 NREC =         1 INTLOC =    1
 II,JST,KST,LST =  2  1  1  1 NREC =         1 INTLOC =    2
 II,JST,KST,LST =  3  1  1  1 NREC =         1 INTLOC =   34
 II,JST,KST,LST =  4  1  1  1 NREC =         1 INTLOC =  137
 II,JST,KST,LST =  5  1  1  1 NREC =         1 INTLOC = 1346
 II,JST,KST,LST =  6  1  1  1 NREC =         1 INTLOC = 1930
 II,JST,KST,LST =  7  1  1  1 NREC =         1 INTLOC = 6813
 II,JST,KST,LST =  8  1  1  1 NREC =         1 INTLOC = 8436
 II,JST,KST,LST =  9  1  1  1 NREC =         2 INTLOC = 5676
 II,JST,KST,LST = 10  1  1  1 NREC =         2 INTLOC = 9126
 II,JST,KST,LST = 11  1  1  1 NREC =         4 INTLOC = 3852
 II,JST,KST,LST = 12  1  1  1 NREC =         4 INTLOC =10809
 II,JST,KST,LST = 13  1  1  1 NREC =         7 INTLOC =10684
 II,JST,KST,LST = 14  1  1  1 NREC =         8 INTLOC = 9709
 II,JST,KST,LST = 15  1  1  1 NREC =         9 INTLOC =10347
 II,JST,KST,LST = 16  1  1  1 NREC =        10 INTLOC =12341
 II,JST,KST,LST = 17  1  1  1 NREC =        12 INTLOC = 1431
 II,JST,KST,LST = 18  1  1  1 NREC =        13 INTLOC = 7105
 II,JST,KST,LST = 19  1  1  1 NREC =        14 INTLOC =14366
 II,JST,KST,LST = 20  1  1  1 NREC =        16 INTLOC = 8543
 II,JST,KST,LST = 21  1  1  1 NREC =        18 INTLOC = 4980
 II,JST,KST,LST = 22  1  1  1 NREC =        20 INTLOC = 4003
 II,JST,KST,LST = 23  1  1  1 NREC =        22 INTLOC = 5292
 II,JST,KST,LST = 24  1  1  1 NREC =        24 INTLOC = 2703
 II,JST,KST,LST = 25  1  1  1 NREC =        34 INTLOC =13095
 II,JST,KST,LST = 26  1  1  1 NREC =        38 INTLOC =  243
 II,JST,KST,LST = 27  1  1  1 NREC =        41 INTLOC = 5782
 SCHWARZ INEQUALITY TEST SKIPPED        7773 INTEGRAL BLOCKS.
 TOTAL NUMBER OF NONZERO TWO-ELECTRON INTEGRALS =              658930
         44 INTEGRAL RECORDS WERE STORED ON DISK FILE  8.
  ...... END OF TWO-ELECTRON INTEGRALS .....
 STEP CPU TIME =     0.22 TOTAL CPU TIME =          0.4 (      0.0 MIN)
 TOTAL WALL CLOCK TIME=          0.4 SECONDS, CPU UTILIZATION IS    90.00%

          --------------------------
                 RHF SCF CALCULATION
          --------------------------

     NUCLEAR ENERGY =       304.1667925593
     MAXIT =   30     NPUNCH=    2
     EXTRAP=T  DAMP=F  SHIFT=F  RSTRCT=F  DIIS=F  DEM=F  SOSCF=T
     DENSITY MATRIX CONV=  1.00E-05
     SOSCF WILL OPTIMIZE     567 ORBITAL ROTATIONS, SOGTOL=   0.250
     MEMORY REQUIRED FOR RHF ITERS=     49068 WORDS.

 ITER EX DEM     TOTAL ENERGY        E CHANGE  DENSITY CHANGE     ORB. GRAD
   1  0  0     -255.8160236974  -255.8160236974   0.324202311   0.000000000
          ---------------START SECOND ORDER SCF---------------
   2  1  0     -256.1550674104    -0.3390437131   0.108008676   0.022817201
   3  2  0     -256.1706583862    -0.0155909757   0.037293563   0.008708037
   4  3  0     -256.1728295348    -0.0021711487   0.005019451   0.001022622
   5  4  0     -256.1728803494    -0.0000508146   0.001581152   0.000368925
   6  5  0     -256.1728837973    -0.0000034478   0.000662865   0.000107290
   7  6  0     -256.1728844251    -0.0000006279   0.000263757   0.000044962
   8  7  0     -256.1728844774    -0.0000000523   0.000043630   0.000009989
   9  8  0     -256.1728844839    -0.0000000065   0.000010729   0.000002566
  10  9  0     -256.1728844844    -0.0000000004   0.000003263   0.000000690
  11 10  0     -256.1728844844    -0.0000000000   0.000001331   0.000000266

          -----------------
          DENSITY CONVERGED
          -----------------
     TIME TO FORM FOCK OPERATORS=       0.1 SECONDS (       0.0 SEC/ITER)
     TIME TO SOLVE SCF EQUATIONS=       0.1 SECONDS (       0.0 SEC/ITER)

 FINAL RHF ENERGY IS     -256.1728844844 AFTER  11 ITERATIONS

          ------------
          EIGENVECTORS
          ------------

                      1          2          3          4          5
                  -11.1089   -11.0647   -11.0632   -11.0536   -11.0505
                     A          A          A          A          A   
    1  C  1  S   -0.002867   0.991913   0.008304   0.000102   0.000457
    2  C  1  S   -0.005434   0.037783   0.000464  -0.000020  -0.000069
    3  C  1  X   -0.004007  -0.000145   0.000033  -0.000019  -0.000072
    4  C  1  Y   -0.000018  -0.000044   0.000052   0.000027  -0.000030
    5  C  1  Z   -0.000298  -0.000187   0.000021  -0.000007  -0.000002
    6  C  2  S    0.992310   0.003810   0.003776   0.000553   0.000759
    7  C  2  S    0.034557  -0.005496  -0.005547   0.000207   0.000095
    8  C  2  X    0.001098   0.004299  -0.001968   0.000065  -0.000175
    9  C  2  Y   -0.001003   0.000158  -0.003694  -0.000042   0.000002
   10  C  2  Z   -0.001383   0.000501   0.000666  -0.000019  -0.000046
   11  C  3  S    0.002373  -0.000452  -0.001132  -0.004974  -0.002173
   12  C  3  S   -0.006445   0.000122   0.000106  -0.005983  -0.000258
   13  C  3  X    0.002687  -0.000085  -0.000016  -0.003823  -0.000212
   14  C  3  Y   -0.003352  -0.000056  -0.000050  -0.001384  -0.000232
   15  C  3  Z   -0.000991  -0.000050   0.000030   0.001355  -0.000045
   16  C  4  S   -0.000510  -0.000091  -0.004093   0.990610   0.051342
   17  C  4  S    0.000120  -0.000020  -0.000005   0.037573  -0.003628
   18  C  4  X    0.000017   0.000008   0.000185  -0.000239  -0.000275
   19  C  4  Y   -0.000071   0.000000  -0.000006   0.000142  -0.003897
   20  C  4  Z   -0.000009  -0.000026   0.000102  -0.000123  -0.001448
   21  C  5  S   -0.000608  -0.000339  -0.011596  -0.050396   0.990620
   22  C  5  S    0.000092  -0.000026  -0.005976  -0.007484   0.036823
   23  C  5  X    0.000023   0.000022   0.003945   0.000074   0.000086
   24  C  5  Y    0.000164   0.000041  -0.001247   0.003868   0.000251
   25  C  5  Z   -0.000101  -0.000031  -0.000415   0.001486   0.000264
   26  C  6  S   -0.002772  -0.008303   0.991849   0.003507   0.012784
   27  C  6  S   -0.005460  -0.000185   0.037243   0.000483  -0.005147
   28  C  6  X    0.001976  -0.000027  -0.000245   0.000262  -0.004041
   29  C  6  Y    0.003477  -0.000018  -0.000124   0.000095   0.001062
   30  C  6  Z   -0.000563  -0.000037  -0.000404   0.000115   0.000402
   31  H  7  S    0.000039  -0.006982  -0.000123  -0.000018  -0.000011
   32  H  8  S   -0.000076  -0.007001  -0.000010   0.000006   0.000003
   33  H  9  S    0.000023  -0.006956  -0.000141  -0.000005  -0.000019
   34  H 10  S    0.000092  -0.000123  -0.000052   0.000132  -0.000100
   35  H 11  S   -0.000007   0.000001   0.000057  -0.007007  -0.000289
   36  H 12  S   -0.000035   0.000006  -0.000084  -0.006942  -0.000236
   37  H 13  S   -0.000098  -0.000011   0.000194   0.000482  -0.006977
   38  H 14  S    0.000031   0.000006   0.000134   0.000430  -0.007017
   39  H 15  S   -0.000081  -0.000021  -0.007044  -0.000015  -0.000026
   40  H 16  S    0.000056   0.000094  -0.006924  -0.000143   0.000031
   41  B 17  S    0.000305  -0.000002   0.000004   0.000005   0.000010
   42  B 17  S   -0.001927   0.000045   0.000016   0.000052  -0.000044
   43  B 17  X    0.000943   0.000008  -0.000015  -0.000038  -0.000092
   44  B 17  Y   -0.001361   0.000036  -0.000019  -0.000048  -0.000082
   45  B 17  Z    0.001497  -0.000021   0.000013   0.000017   0.000025
   46  H 18  S    0.000024  -0.000022  -0.000004  -0.000062   0.000103
   47  H 19  S   -0.001223  -0.000164  -0.000055   0.000003   0.000023
   48  H 20  S    0.000126   0.000062  -0.000030  -0.000049  -0.000044

                      6          7          8          9         10
                  -11.0290    -7.3786    -1.1072    -0.9863    -0.9317
                     A          A          A          A          A   
    1  C  1  S    0.000495   0.000006  -0.055932  -0.147858  -0.023246
    2  C  1  S    0.000244   0.000127   0.149759   0.413251   0.066719
    3  C  1  X    0.000038  -0.000035   0.042932   0.042206  -0.002496
    4  C  1  Y    0.000055  -0.000029   0.000913  -0.002484   0.021209
    5  C  1  Z    0.000017   0.000014   0.001317  -0.000058   0.000886
    6  C  2  S   -0.001693   0.000393  -0.132319  -0.101442   0.002670
    7  C  2  S   -0.006758  -0.002167   0.352726   0.289463  -0.006678
    8  C  2  X   -0.002425  -0.000517   0.053580  -0.091671  -0.033183
    9  C  2  Y    0.003280   0.001016  -0.014006  -0.033768   0.155129
   10  C  2  Z    0.001992  -0.001836  -0.036633  -0.014115   0.018390
   11  C  3  S    0.992124   0.000460  -0.110880  -0.016523   0.130681
   12  C  3  S    0.035822  -0.002585   0.282358   0.046461  -0.369234
   13  C  3  X   -0.001054  -0.000254  -0.010138  -0.091443  -0.023324
   14  C  3  Y    0.001510   0.000629   0.076062   0.011784  -0.010915
   15  C  3  Z    0.000309  -0.002459   0.014115   0.030017   0.011909
   16  C  4  S    0.006045   0.000024  -0.089434   0.097694   0.102787
   17  C  4  S   -0.005341   0.000090   0.233444  -0.271239  -0.296032
   18  C  4  X    0.003738   0.000044  -0.042602  -0.010061   0.047123
   19  C  4  Y    0.001334  -0.000052   0.023726  -0.047164   0.066147
   20  C  4  Z   -0.001242  -0.000133   0.023500  -0.010811   0.000612
   21  C  5  S    0.001985   0.000018  -0.089834   0.114267  -0.067792
   22  C  5  S    0.000135   0.000027   0.233500  -0.318004   0.194235
   23  C  5  X    0.000151   0.000107  -0.044782   0.005819  -0.057856
   24  C  5  Y    0.000092   0.000111  -0.026770   0.030548   0.086565
   25  C  5  Z   -0.000122  -0.000117  -0.004078   0.012884   0.026283
   26  C  6  S    0.001262   0.000018  -0.104410   0.025644  -0.149154
   27  C  6  S    0.000155   0.000006   0.274602  -0.069267   0.431065
   28  C  6  X   -0.000131  -0.000034   0.007409  -0.082542   0.013561
   29  C  6  Y    0.000134   0.000036  -0.058363  -0.015409   0.023506
   30  C  6  Z    0.000107  -0.000013  -0.004027   0.014493  -0.004176
   31  H  7  S   -0.000029  -0.000314   0.028643   0.104095   0.009063
   32  H  8  S   -0.000075  -0.000049   0.030802   0.105459   0.019843
   33  H  9  S   -0.000100   0.000097   0.027561   0.100148   0.028453
   34  H 10  S   -0.006779  -0.000160   0.051239   0.019809  -0.109107
   35  H 11  S   -0.000120  -0.000098   0.044648  -0.067874  -0.082948
   36  H 12  S   -0.000069  -0.000183   0.040535  -0.066293  -0.083987
   37  H 13  S   -0.000114  -0.000066   0.041791  -0.080281   0.059755
   38  H 14  S    0.000009  -0.000197   0.045102  -0.077621   0.053493
   39  H 15  S   -0.000024  -0.000070   0.056163  -0.013301   0.126603
   40  H 16  S   -0.000106   0.000058   0.048662  -0.014196   0.128275
   41  B 17  S    0.000388   0.990874  -0.017942  -0.010803   0.018028
   42  B 17  S   -0.002562   0.036349   0.033780   0.022316  -0.037408
   43  B 17  X   -0.000449   0.000245  -0.001527  -0.009351  -0.002558
   44  B 17  Y    0.000245  -0.000433   0.006596   0.004718   0.003679
   45  B 17  Z    0.002435  -0.000572  -0.017222  -0.009180   0.021247
   46  H 18  S    0.000315  -0.006329   0.009202   0.000793  -0.011466
   47  H 19  S    0.000089  -0.002529   0.013369   0.016636   0.004560
   48  H 20  S    0.000304  -0.006373   0.007415   0.008565  -0.012568

                     11         12         13         14         15
                   -0.8806    -0.7677    -0.6865    -0.6469    -0.6196
                     A          A          A          A          A   
    1  C  1  S   -0.146579   0.008512   0.025484  -0.001384   0.026546
    2  C  1  S    0.429002  -0.026032  -0.079201   0.004470  -0.087204
    3  C  1  X   -0.065724   0.022411   0.150472  -0.040655   0.276098
    4  C  1  Y   -0.000219  -0.052261   0.049313   0.006804  -0.028767
    5  C  1  Z   -0.007343   0.007770   0.042812   0.123242   0.048518
    6  C  2  S    0.068991  -0.025204  -0.115011   0.017739  -0.057636
    7  C  2  S   -0.209543   0.078940   0.391036  -0.052240   0.207650
    8  C  2  X   -0.169059   0.023446   0.010797  -0.013731  -0.253978
    9  C  2  Y    0.019391  -0.176795   0.088603   0.024861  -0.044910
   10  C  2  Z    0.023533   0.008247   0.029985   0.190944   0.018456
   11  C  3  S    0.073442  -0.036303   0.102116   0.010758   0.024446
   12  C  3  S   -0.209387   0.109130  -0.333877  -0.027196  -0.081954
   13  C  3  X    0.078862  -0.141388   0.015401   0.078974  -0.183702
   14  C  3  Y   -0.042697   0.009199   0.245267  -0.107543  -0.150293
   15  C  3  Z   -0.040935   0.081335   0.108075   0.122950  -0.014207
   16  C  4  S   -0.086728   0.105089  -0.033034  -0.013180  -0.007717
   17  C  4  S    0.254797  -0.326433   0.105032   0.043071   0.023496
   18  C  4  X    0.071821  -0.023002   0.100024   0.112399   0.210538
   19  C  4  Y    0.045614   0.114072   0.091436  -0.121035  -0.035484
   20  C  4  Z   -0.014276   0.089520   0.014973   0.110443  -0.187791
   21  C  5  S   -0.083847  -0.123421   0.002488   0.015365  -0.004990
   22  C  5  S    0.247154   0.385290  -0.007059  -0.050907   0.012199
   23  C  5  X    0.071368   0.095851   0.037732   0.039687   0.199347
   24  C  5  Y   -0.039471   0.080265  -0.143491  -0.020937   0.134371
   25  C  5  Z   -0.026177   0.058502   0.000179   0.169038  -0.141100
   26  C  6  S    0.065921   0.082584   0.049652  -0.017196   0.009594
   27  C  6  S   -0.194287  -0.258786  -0.159827   0.056929  -0.032637
   28  C  6  X    0.061946   0.146669  -0.076184  -0.018023  -0.123888
   29  C  6  Y    0.026668  -0.058481  -0.223255   0.102351   0.136035
   30  C  6  Z   -0.011024   0.020723   0.051742   0.208687  -0.041833
   31  H  7  S    0.138438   0.017401  -0.092785   0.044172  -0.077433
   32  H  8  S    0.138775  -0.021086  -0.081704  -0.084116  -0.120770
   33  H  9  S    0.140554  -0.038358  -0.037395   0.067501  -0.123624
   34  H 10  S   -0.057916   0.052813  -0.311449   0.003814   0.110156
   35  H 11  S    0.085268  -0.166674   0.028471  -0.062191   0.163373
   36  H 12  S    0.089346  -0.142403   0.060701   0.155242   0.098571
   37  H 13  S    0.089464   0.170153  -0.050678  -0.092196   0.213839
   38  H 14  S    0.077459   0.188850   0.008356   0.112621  -0.019458
   39  H 15  S   -0.056518  -0.145490  -0.135921  -0.082019   0.091086
   40  H 16  S   -0.057403  -0.116088  -0.131322   0.186557   0.044487
   41  B 17  S    0.020250  -0.033058  -0.008425  -0.144137  -0.017419
   42  B 17  S   -0.043692   0.076332   0.022587   0.361069   0.044419
   43  B 17  X    0.001369  -0.005611  -0.004377   0.021411  -0.051401
   44  B 17  Y   -0.005768   0.000969   0.038470  -0.011022  -0.020538
   45  B 17  Z    0.020871  -0.022421   0.005858   0.002262   0.004888
   46  H 18  S   -0.011250   0.027780   0.014380   0.204896  -0.013793
   47  H 19  S   -0.009665   0.007880   0.049315   0.100687   0.036269
   48  H 20  S   -0.011666   0.033508  -0.009801   0.184648   0.057057

                     16         17         18         19         20
                   -0.5945    -0.5592    -0.5570    -0.5300    -0.4930
                     A          A          A          A          A   
    1  C  1  S   -0.003821  -0.002877  -0.000923   0.000355   0.005024
    2  C  1  S    0.011378   0.009932   0.003381  -0.001458  -0.020470
    3  C  1  X   -0.106029  -0.053229  -0.039795   0.013904  -0.206893
    4  C  1  Y   -0.084497  -0.320986   0.373945   0.030141   0.157681
    5  C  1  Z    0.031042   0.321010   0.310055  -0.277250  -0.055944
    6  C  2  S    0.027106  -0.007630  -0.002456  -0.003053  -0.007235
    7  C  2  S   -0.097700   0.025839   0.014872   0.014264   0.015414
[...]
 18   H            X  0.00595540  0.00267585  0.13622143  0.61625138  0.61549942
                   Y -0.00637643  0.00718099  0.00655919  0.09548252  0.09577412
                   Z -0.00460261 -0.00151700  0.03521961  0.23982657  0.23400526
 19   H            X -0.00360809  0.00338197 -0.49722561  0.08799224 -0.00842461
                   Y  0.00367018  0.00638619  0.72654576 -0.12886705 -0.00204497
                   Z  0.01242489 -0.00889473  0.35033365 -0.06894440 -0.00030526
 20   H            X  0.00251358 -0.00275581 -0.06639703 -0.35587243  0.34496162
                   Y -0.00735773 -0.00351040 -0.12927861 -0.55179475  0.53299138
                   Z -0.00787096 -0.01282405  0.02371332  0.16827480 -0.15742901

 TRANS. SAYVETZ    X  0.00000014  0.00000008 -0.00000008  0.00000009 -0.00000005
                   Y -0.00000009  0.00000021  0.00000022  0.00000007 -0.00000008
                   Z -0.00000029 -0.00000006 -0.00000102  0.00000031 -0.00000002
               TOTAL  0.00000033  0.00000023  0.00000105  0.00000033  0.00000009

   ROT. SAYVETZ    X -0.00000101  0.00000246 -0.00002816  0.00000124 -0.00000104
                   Y -0.00000097 -0.00000454  0.00000727 -0.00000431 -0.00000474
                   Z -0.00000570 -0.00000005 -0.00005882  0.00001833  0.00000840
               TOTAL  0.00000587  0.00000516  0.00006562  0.00001887  0.00000970

                           51          52          53          54          55
       FREQUENCY:      3573.61     3607.36     3611.17     3633.55     3730.24  
        SYMMETRY:         A           A           A           A           A   
    REDUCED MASS:      1.03892     1.06739     1.06684     1.06843     1.11044
    IR INTENSITY:      0.01099     0.08408     0.01257     0.01563     0.01570

  1   C            X -0.05077431  0.00015986 -0.00026492 -0.00010441  0.00003490
                   Y  0.00245097  0.00005414 -0.00005794  0.00008598  0.00001417
                   Z -0.01143392 -0.00001109  0.00031592 -0.00008477 -0.00009373
  2   C            X  0.00270275 -0.00024414 -0.00093206  0.00064401  0.00008932
                   Y  0.00018926 -0.00002603 -0.00169206  0.00016755  0.00017050
                   Z -0.00023371  0.00021001 -0.00020929 -0.00003451 -0.00024352
  3   C            X  0.00018040 -0.00122649 -0.00008520 -0.00013572 -0.00201489
                   Y -0.00024974  0.00194075  0.00018162 -0.00051305 -0.00651692
                   Z  0.00000467  0.00154474  0.00033632 -0.00035828 -0.00264767
  4   C            X  0.00009897  0.03903609  0.00342024 -0.00204025 -0.04967867
                   Y -0.00009127 -0.02973270 -0.00217827  0.00459969  0.03205244
                   Z -0.00011301 -0.05081546 -0.00419593  0.00730281 -0.06642489
  5   C            X  0.00008042 -0.00577129 -0.00453568 -0.05727043 -0.00036813
                   Y  0.00009829 -0.00158071 -0.00640507 -0.03997576 -0.00354835
                   Z -0.00001066  0.00179455  0.00044995 -0.01043958  0.00722668
  6   C            X  0.00038405  0.00302120 -0.03024446  0.00618381  0.00178336
                   Y -0.00034233 -0.00530835  0.06100677 -0.00646280  0.00401869
                   Z  0.00021615  0.00147229 -0.01718901  0.00375139  0.01900527
  7   H            X  0.17575131 -0.00044324  0.00209498  0.00005673 -0.00029832
                   Y  0.46612534 -0.00145214  0.00426049  0.00011610 -0.00056046
                   Z -0.13327375  0.00041111 -0.00106021 -0.00003254  0.00015281
  8   H            X  0.16995176 -0.00049220  0.00012914  0.00036023  0.00009999
                   Y -0.12237880  0.00033946 -0.00038234 -0.00026155 -0.00006727
                   Z  0.59626550 -0.00152546  0.00085674  0.00131633  0.00033636
  9   H            X  0.21774249 -0.00050657  0.00184653  0.00011951  0.00025973
                   Y -0.37383416  0.00091884 -0.00292032 -0.00043038 -0.00004752
                   Z -0.32752681  0.00071836 -0.00269102 -0.00035062  0.00004040
 10   H            X  0.00111952 -0.00835628 -0.00194162  0.00512860  0.03226662
                   Y  0.00309092 -0.02358536 -0.00617266  0.01110480  0.07077886
                   Z  0.00128704 -0.00944027 -0.00308746  0.00451388  0.03186688
 11   H            X  0.00014781 -0.00092090 -0.00004288  0.00120864 -0.00386552
                   Y  0.00010226  0.03223683  0.00320802 -0.00076326  0.02389018
                   Z  0.00158167  0.77726496  0.06373331 -0.08820189  0.52717630
 12   H            X -0.00142994 -0.42997897 -0.03293695  0.02791749  0.58007159
                   Y  0.00091491  0.29213548  0.02158576 -0.02027913 -0.39484355
                   Z -0.00073056 -0.20050984 -0.01533662  0.01445764  0.25874754
 13   H            X -0.00060724  0.03621462  0.04474725  0.32255508  0.03027380
                   Y -0.00091229  0.04267969  0.05735672  0.40779880  0.03561666
                   Z  0.00099759 -0.04929550 -0.06233829 -0.46187212 -0.04137473
 14   H            X -0.00049046  0.02070927  0.03317767  0.30566893 -0.02174518
                   Y -0.00004256  0.00587425  0.00191624  0.03336448  0.00086495
                   Z -0.00092714  0.04194993  0.05567999  0.57612787 -0.03981149
 15   H            X -0.00154711 -0.02345648  0.26535759 -0.03037954 -0.04297000
                   Y  0.00231789  0.02956018 -0.33081114  0.04174360  0.05351339
                   Z -0.00422730 -0.05791916  0.64288798 -0.08140165 -0.10245552
 16   H            X -0.00032541 -0.00778459  0.07620060 -0.00648648  0.02354908
                   Y  0.00108112  0.03307174 -0.34993740  0.02636495 -0.10124740
                   Z  0.00173978  0.04167965 -0.43765091  0.03543143 -0.12353320
 17   B            X  0.00005661 -0.00025450 -0.00028247 -0.00015270 -0.00030207
                   Y  0.00014062 -0.00003905  0.00006584  0.00005625  0.00008868
                   Z  0.00004211  0.00024735  0.00015994 -0.00018721  0.00014904
 18   H            X  0.00076827  0.00068505  0.00152062  0.00332393  0.00108930
                   Y  0.00018727  0.00008969  0.00043745  0.00158682 -0.00007793
                   Z  0.00031544  0.00033901  0.00029781  0.00046707  0.00035140
 19   H            X  0.00224568 -0.00016773  0.00142544 -0.00008273  0.00097870
                   Y -0.00183628  0.00043817 -0.00461198  0.00027687 -0.00136029
                   Z  0.00156757 -0.00037696  0.00098394 -0.00014233  0.00089395
 20   H            X -0.00042191  0.00083476  0.00017094  0.00004073  0.00076608
                   Y -0.00082261  0.00072623 -0.00016985  0.00002162  0.00072569
                   Z  0.00023876 -0.00060628 -0.00002702  0.00009987  0.00009238

 TRANS. SAYVETZ    X -0.00000001  0.00000077 -0.00000009 -0.00000057 -0.00000023
                   Y -0.00000014  0.00000028  0.00000057 -0.00000020 -0.00000009
                   Z  0.00000007 -0.00000016  0.00000018 -0.00000014 -0.00000021
               TOTAL  0.00000016  0.00000084  0.00000060  0.00000062  0.00000032

   ROT. SAYVETZ    X -0.00000087 -0.00000020 -0.00000258 -0.00000028 -0.00000099
                   Y  0.00000123  0.00000073  0.00000184 -0.00000029  0.00000036
                   Z  0.00000184  0.00000049  0.00000078  0.00000017  0.00000006
               TOTAL  0.00000238  0.00000090  0.00000326  0.00000044  0.00000105

                           56          57          58          59          60
       FREQUENCY:      3732.56     3739.33     3746.25     3751.94     3771.74  
        SYMMETRY:         A           A           A           A           A   
    REDUCED MASS:      1.11060     1.09741     1.10786     1.11134     1.11062
    IR INTENSITY:      0.00793     0.16764     0.03180     0.00624     0.03675

  1   C            X -0.00047505 -0.00019875  0.01223842  0.00024532  0.00026587
                   Y -0.00033947 -0.00000110  0.00473604  0.00006199 -0.09161597
                   Z  0.00249525  0.00458453 -0.08950867 -0.00163376 -0.00512338
  2   C            X  0.00034641 -0.00251722 -0.00103687 -0.00039873  0.00016542
                   Y  0.00128810  0.00350384  0.00042707  0.00022540  0.00028458
                   Z -0.00016542  0.00035002 -0.00026858 -0.00010409  0.00009172
  3   C            X -0.00204559 -0.02981794 -0.00170584 -0.00123449 -0.00037157
                   Y -0.00544791 -0.07333315 -0.00385983 -0.00307816 -0.00019194
                   Z -0.00246519 -0.03111551 -0.00161153 -0.00121484 -0.00013185
  4   C            X -0.01044517  0.00874162  0.00023909 -0.00426097  0.00002931
                   Y  0.00697965 -0.00297008 -0.00001375  0.00258356  0.00002869
                   Z -0.01322340  0.00501334  0.00000377 -0.00750720 -0.00000292
  5   C            X -0.00142217  0.00118741  0.00008545 -0.00243891 -0.00001138
                   Y -0.00465753  0.00042409 -0.00062580  0.02826297  0.00005114
                   Z  0.01201930  0.00179157  0.00202009 -0.08650150 -0.00004651
  6   C            X -0.00660933 -0.00006030 -0.00036920 -0.00127548  0.00037237
                   Y -0.02132997  0.00204252 -0.00023019 -0.00136754  0.00003993
                   Z -0.08585528  0.00547827 -0.00193621 -0.00928327  0.00030794
  7   H            X  0.00378971  0.00416219 -0.10892505 -0.00209028  0.25155629
                   Y  0.00994579  0.01067255 -0.28927041 -0.00543210  0.66873268
                   Z -0.00262930 -0.00285345  0.07726795  0.00144382 -0.19066653
  8   H            X -0.00490987 -0.01012143  0.18974475  0.00357748 -0.02723403
                   Y  0.00362726  0.00740612 -0.13994843 -0.00257258  0.01639640
                   Z -0.01798205 -0.03585429  0.67007706  0.01218905 -0.09863517
  9   H            X  0.00560567  0.01163781 -0.21442128 -0.00383807 -0.23086064
                   Y -0.00993234 -0.01894416  0.37180278  0.00680520  0.39919349
                   Z -0.00833117 -0.01584185  0.31749672  0.00585469  0.34889507
 10   H            X  0.02736479  0.35383115  0.01849025  0.01349084  0.00104134
                   Y  0.06250488  0.79903598  0.04138886  0.03111613  0.00261722
                   Z  0.02683554  0.35115647  0.01852647  0.01370165  0.00121533
 11   H            X -0.00091909 -0.00149839  0.00000576 -0.00099778 -0.00003181
                   Y  0.00430151 -0.00213462 -0.00009251  0.00734261 -0.00000502
                   Z  0.10279804 -0.03516279 -0.00032756  0.07187593  0.00012392
 12   H            X  0.11971647 -0.07562796 -0.00201867  0.05261020 -0.00029316
                   Y -0.08074960  0.05000204  0.00125527 -0.03725504  0.00017154
                   Z  0.05350916 -0.03290941 -0.00075833  0.02432154 -0.00006638
 13   H            X  0.04669154  0.00220225  0.00669322 -0.29587108  0.00012195
                   Y  0.05992292  0.00291520  0.00852471 -0.37193711 -0.00001084
                   Z -0.06562308 -0.00281013 -0.00942306  0.41517447 -0.00001700
 14   H            X -0.03152964 -0.01111221 -0.00746082  0.32548610  0.00009335
                   Y -0.00382286 -0.00181723 -0.00095099  0.04031428  0.00003707
                   Z -0.06591568 -0.02013430 -0.01408605  0.60231406  0.00034406
 15   H            X  0.18514052 -0.01017417  0.00509952  0.02939405 -0.00062745
                   Y -0.23181818  0.01254029 -0.00646997 -0.03364502  0.00077454
                   Z  0.44297517 -0.02441422  0.01229224  0.06018184 -0.00171308
 16   H            X -0.10463741  0.00769846 -0.00181713 -0.01125344  0.00031559
                   Y  0.46656713 -0.03100831  0.00932921  0.04593265 -0.00059829
                   Z  0.56861136 -0.03806721  0.01117042  0.05718830 -0.00103662
 17   B            X -0.00007074 -0.00055323  0.00007590 -0.00032633  0.00014776
                   Y -0.00018642  0.00081890 -0.00000012 -0.00006257 -0.00001780
                   Z  0.00013086  0.00133380  0.00021139 -0.00000109 -0.00004990
 18   H            X -0.00019902 -0.00026034 -0.00026234  0.00313887  0.00017587
                   Y -0.00007552  0.00105366 -0.00032237  0.00168857  0.00007993
                   Z  0.00012034  0.00093742  0.00037854  0.00033209  0.00011791
 19   H            X -0.00026944  0.00287861  0.00130574  0.00036650 -0.00115898
                   Y  0.00087612 -0.00324875 -0.00066605 -0.00049680  0.00143176
                   Z  0.00203067  0.00754016  0.00228596  0.00052453  0.00013434
 20   H            X  0.00081503  0.00229762  0.00020476  0.00103820 -0.00007083
                   Y  0.00058460  0.00203510  0.00025930  0.00105064 -0.00029938
                   Z  0.00038409 -0.00067848 -0.00010255 -0.00005344  0.00025219

 TRANS. SAYVETZ    X -0.00000001 -0.00000006 -0.00000005 -0.00000003 -0.00000002
                   Y -0.00000009 -0.00000023  0.00000010  0.00000003 -0.00000016
                   Z -0.00000034 -0.00000032 -0.00000006 -0.00000027 -0.00000005
               TOTAL  0.00000035  0.00000039  0.00000013  0.00000027  0.00000017

   ROT. SAYVETZ    X -0.00000007 -0.00000010 -0.00000051 -0.00000078 -0.00000054
                   Y  0.00000018 -0.00000151 -0.00000048 -0.00000037  0.00000045
                   Z  0.00000060  0.00000099 -0.00000001 -0.00000003  0.00000159
               TOTAL  0.00000063  0.00000181  0.00000070  0.00000086  0.00000174

 REFERENCE ON SAYVETZ CONDITIONS - A. SAYVETZ, J.CHEM.PHYS., 7, 383-389(1939).

 NOTE - THE MODES J,K ARE ORTHONORMALIZED ACCORDING TO
 SUM ON I   M(I) * (X(I,J)*X(I,K) + Y(I,J)*Y(I,K) + Z(I,J)*Z(I,K)) = DELTA(J,K)

  MODE FREQ(CM**-1)  SYMMETRY  RED. MASS  IR INTENS.
     1     696.742    A        1.831148    3.791185
     2       2.894    A        2.719928    0.122433
     3       1.891    A        3.188406    0.019581
     4       0.949    A        3.053955    0.049509
     5       0.002    A        4.805579    0.000000
     6       0.045    A        4.793874    0.000053
     7       0.237    A        4.727571    0.002162
     8     192.781    A        1.771752    0.005782
     9     214.682    A        1.034678    0.002578
    10     253.390    A        1.996530    0.096187
    11     326.332    A        2.202309    0.117717
    12     365.078    A        2.194405    0.197329
    13     438.485    A        2.244003    0.244156
    14     521.084    A        1.293690    0.026589
    15     599.795    A        3.161287    1.133300
    16     675.384    A        2.716435    0.027106
    17     750.661    A        2.207216    0.059281
    18     884.322    A        1.958723    0.039311
    19     950.997    A        1.671767    0.216531
    20    1014.703    A        2.209442    0.043282
    21    1045.862    A        1.498095    0.185055
    22    1053.522    A        1.463961    0.037097
    23    1092.660    A        2.149518    0.014924
    24    1132.397    A        1.727566    0.032373
    25    1173.484    A        1.322629    0.029941
    26    1211.875    A        1.344902    0.294002
    27    1240.912    A        1.380244    0.781196
    28    1253.766    A        1.401591    0.090202
    29    1322.917    A        1.790479    0.137026
    30    1376.443    A        1.277304    0.663181
    31    1391.000    A        1.718114    0.078909
    32    1459.844    A        1.166081    2.740823
    33    1473.293    A        1.231427    0.046476
    34    1486.067    A        1.332069    0.053801
    35    1504.924    A        1.393558    0.063296
    36    1532.086    A        1.104478    0.594750
    37    1544.039    A        1.087665    0.044198
    38    1621.919    A        1.797639    0.063034
    39    1626.751    A        1.889045    0.017760
    40    1635.404    A        1.791335    0.080250
    41    1709.003    A        1.301250    0.025568
    42    1775.959    A        1.996824    0.203496
    43    1796.879    A        1.095485    0.026713
    44    1800.552    A        1.072035    0.086481
    45    1812.300    A        1.395290    0.029116
    46    1817.844    A        1.125642    0.003596
    47    1833.864    A        1.122324    0.011813
    48    2893.275    A        1.058810    0.807890
    49    3159.976    A        1.063588    0.453042
    50    3310.873    A        1.133962    0.474598
    51    3573.612    A        1.038917    0.010988
    52    3607.365    A        1.067387    0.084083
    53    3611.169    A        1.066835    0.012565
    54    3633.547    A        1.068433    0.015625
    55    3730.238    A        1.110440    0.015702
    56    3732.562    A        1.110604    0.007929
    57    3739.334    A        1.097413    0.167641
    58    3746.254    A        1.107856    0.031795
    59    3751.940    A        1.111339    0.006236
    60    3771.738    A        1.110622    0.036751

     -------------------------------
     THERMOCHEMISTRY AT T=  298.15 K
     -------------------------------

 USING IDEAL GAS, RIGID ROTOR, HARMONIC NORMAL MODE APPROXIMATIONS.
 P=  1.01325E+05 PASCAL.
 ALL FREQUENCIES ARE SCALED BY   1.00000
 THE MOMENTS OF INERTIA ARE (IN AMU*BOHR**2)
            462.51854           740.96866           909.39520
 THE ROTATIONAL SYMMETRY NUMBER IS  1.0
 THE ROTATIONAL CONSTANTS ARE (IN GHZ)
      3.89841     2.43342     1.98273
   1 IMAGINARY FREQUENCY VIBRATION(S) IS(ARE) EXCLUDED
     FROM THE FOLLOWING THERMOCHEMICAL ANALYSIS.
      8 -     60 VIBRATIONAL MODES ARE USED IN THERMOCHEMISTRY.
 THE HARMONIC ZERO POINT ENERGY IS (SCALED BY   1.000)
        0.212269 HARTREE/MOLECULE    46587.572323 CM**-1/MOLECULE 
      133.200687 KCAL/MOL              557.311675 KJ/MOL

               Q               LN Q
 ELEC.     1.00000E+00       0.000000
 TRANS.    3.70351E+07      17.427377
 ROT.      1.99840E+05      12.205272
 VIB.      8.34022E+00       2.121090
 TOT.      6.17268E+13      31.753739

              E         H         G         CV        CP        S
           KJ/MOL    KJ/MOL    KJ/MOL   J/MOL-K   J/MOL-K   J/MOL-K
 ELEC.      0.000     0.000     0.000     0.000     0.000     0.000
 TRANS.     3.718     6.197   -43.201    12.472    20.786   165.684
 ROT.       3.718     3.718   -30.256    12.472    12.472   113.951
 VIB.     566.676   566.676   552.054    76.348    76.348    49.043
 TOTAL    574.113   576.591   478.596   101.291   109.605   328.678
 VIB. THERMAL CORRECTION E(T)-E(0) = H(T)-H(0) =      9364.004 J/MOL

              E         H         G         CV        CP        S
         KCAL/MOL  KCAL/MOL  KCAL/MOL CAL/MOL-K CAL/MOL-K CAL/MOL-K
 ELEC.      0.000     0.000     0.000     0.000     0.000     0.000
 TRANS.     0.889     1.481   -10.325     2.981     4.968    39.600
 ROT.       0.889     0.889    -7.231     2.981     2.981    27.235
 VIB.     135.439   135.439   131.944    18.248    18.248    11.721
 TOTAL    137.216   137.809   114.387    24.209    26.196    78.556
 VIB. THERMAL CORRECTION E(T)-E(0) = H(T)-H(0) =      2238.051 CAL/MOL
 ......END OF NORMAL COORDINATE ANALYSIS......
 STEP CPU TIME =     0.01 TOTAL CPU TIME =         76.3 (      1.3 MIN)
 TOTAL WALL CLOCK TIME=         77.0 SECONDS, CPU UTILIZATION IS    99.09%
               580000  WORDS OF DYNAMIC MEMORY USED
 EXECUTION OF GAMESS TERMINATED NORMALLY Sun Nov 14 22:20:03 2021
 DDI: 263640 bytes (0.3 MB / 0 MWords) used by master data server.

 ----------------------------------------
 CPU timing information for all processes
 ========================================
 0: 75.71 + 1.208 = 76.280
 ----------------------------------------
 ddikick.x: exited gracefully.
----- accounting info -----
Files used on the master node chemcompute-node-0.novalocal were:
-rw-r--r--. 1 chemcomp chemcomp     1484 Nov 14 22:18 /scratch/306550/342561.F05
-rw-rw-r--. 1 chemcomp chemcomp  8100720 Nov 14 22:19 /scratch/306550/342561.F08
-rw-rw-r--. 1 chemcomp chemcomp 85196800 Nov 14 22:20 /scratch/306550/342561.F10
-rw-rw-r--. 1 chemcomp chemcomp   564960 Nov 14 22:20 /scratch/306550/342561.F18
Sun Nov 14 22:20:06 UTC 2021
0.143u 0.085s 1:20.52 0.2%	0+0k 8+224io 0pf+0w
Finishing Up...
Looking for IR data...
Looking for Raman data...
vibramans not found
Looking for thermodynamics data...
Looking for UV-Vis data...
306550
